1000
Lattice="12.205224444702845 0.0 0.0 0.0 12.205224444702845 0.0 0.0 0.0 12.205224444702845" Properties=:species:S:1:pos:R:3 Time=1000
2 8.588365 5.979063 7.385210
2 6.546991 6.554511 8.137098
1 6.927461 7.092932 9.750214
1 6.803407 7.078508 11.623964
1 6.739020 6.595023 12.598429
2 7.367823 7.269508 0.996240
2 5.589767 6.976487 0.105232
2 6.557675 7.162691 4.340298
2 7.489010 5.121755 4.804778
1 6.775768 6.469563 5.390547
2 6.661185 8.317806 6.965029
1 5.639692 8.389084 7.646353
2 6.181870 8.098771 9.241766
2 6.336500 9.009443 9.832229
2 5.380274 8.085857 10.970507
2 7.614295 7.789638 -0.062448
2 7.139726 8.287079 1.631414
2 6.513482 7.994566 3.465520
2 7.649356 6.631771 4.297918
1 6.560129 8.987085 5.270675
2 6.781245 9.468933 6.558874
1 6.518674 9.225946 7.558607
2 5.258914 10.288919 7.707543
2 7.271865 8.719640 10.575756
2 6.420719 9.370160 10.978240
2 6.667646 8.678773 0.650482
1 6.622374 8.862739 2.450469
1 7.539565 9.941913 3.321148
2 6.651335 9.062114 4.155308
2 7.865697 10.216218 5.320586
2 8.009049 9.469972 6.661138
2 7.462968 9.809427 7.853247
1 6.850162 9.529920 9.017196
2 7.379890 10.163136 9.815920
2 7.617495 9.860735 11.357654
1 5.658716 10.993211 1.151512
2 7.470592 9.899054 1.515031
2 8.501366 10.796873 3.483161
2 6.580824 10.936735 4.291806
2 6.714468 10.255039 5.419585
2 6.564820 11.534503 6.770266
2 6.441603 12.002393 7.931191
2 7.049530 11.698411 8.767677
1 7.093435 12.733813 10.822297
2 7.016359 10.889346 10.864492
2 5.873138 11.139378 -0.572334
2 7.634372 10.843054 0.750894
2 7.280234 11.215891 3.537013
1 5.146399 12.076886 5.516715
2 5.574282 11.352241 6.208570
2 7.108642 0.411641 6.793879
2 6.618737 1.114575 7.518654
2 7.728662 0.313034 9.440218
1 6.237610 0.869403 9.591942
1 7.456357 0.353818 12.191735
1 6.490008 -0.858547 0.654880
2 7.497399 0.491684 3.280734
1 6.552605 -0.455556 1.801051
2 6.523836 1.324470 5.857055
2 5.954818 0.633117 4.700117
2 7.348304 1.729981 6.502678
2 6.551671 2.415335 8.025217
2 6.604127 2.224458 9.601899
2 6.365752 2.407229 11.117986
2 6.584977 1.521687 12.058225
2 8.457554 3.107171 0.175379
1 6.711726 1.441788 2.352357
2 5.369656 2.025676 1.712353
2 7.074242 1.344000 4.045612
2 6.023504 2.134377 6.419875
2 6.858587 3.570010 7.046109
2 6.255885 3.114761 9.005953
2 6.285416 3.666827 10.111665
2 5.398089 1.997727 11.584787
1 7.621508 2.771199 11.750302
2 6.174104 3.142779 -0.035928
1 7.583232 4.244480 1.348061
2 6.054827 3.609163 2.115984
1 6.475192 1.950050 4.843646
2 7.747084 4.164037 6.048711
2 6.757129 4.785303 6.841866
2 7.259988 4.149161 9.435290
2 5.501554 5.176061 9.298745
2 6.755579 4.845484 10.407704
2 7.764726 4.118147 11.221483
2 5.530412 4.207398 0.861416
1 7.051301 3.426506 2.797319
2 6.226517 4.448380 2.899010
2 6.428244 4.189501 4.110873
2 7.488154 3.608531 5.038510
2 6.650182 4.377119 5.222267
1 7.106254 5.600006 7.371728
2 6.707431 5.675061 8.903564
1 6.509546 5.514803 11.513780
2 6.486970 4.388321 11.583621
2 7.946162 6.132329 -0.205060
2 6.860706 5.725158 0.919982
2 6.241666 5.699672 3.127252
2 6.086126 5.453617 4.387541
2 6.559718 5.414261 5.890391
1 7.528657 6.256263 6.509117
2 6.917405 7.105068 7.294996
2 6.522210 7.827698 8.079431
2 7.713975 6.444086 9.155451
2 7.320904 5.625785 9.999427
1 8.671947 8.180348 0.910133
2 6.693967 6.616511 1.677785
2 7.369513 5.992868 2.678399
2 8.896921 6.580414 4.279338
2 8.005202 7.733890 5.420964
1 7.398751 7.435550 6.343792
2 8.740771 8.107040 8.444167
2 6.681343 7.708671 10.827777
1 9.260633 7.817179 10.189599
2 7.390483 8.745773 11.674413
1 8.938466 6.965523 0.261634
1 7.207113 7.222509 2.942105
2 7.804282 7.286550 2.102823
2 8.198948 7.135915 3.427930
2 6.908840 8.141402 4.751109
2 9.007176 8.811779 6.217015
2 7.662590 8.107778 7.656640
1 7.102224 8.717631 8.263980
2 8.054793 9.505847 10.332669
1 8.793050 8.841545 11.330064
2 7.701493 8.979922 0.603388
2 8.270192 9.027063 1.494675
2 8.339676 8.830228 3.696254
2 9.166692 8.189186 3.859110
2 9.582701 9.532465 5.391572
1 8.591468 10.061031 6.026485
2 8.235516 10.483615 7.372891
1 8.370208 9.352581 9.181136
2 7.874146 11.424779 10.010833
2 6.988747 10.708477 12.122048
2 8.684939 10.272080 1.627719
2 8.346043 9.597643 2.515074
2 8.514319 10.917603 4.726818
2 7.320651 10.116419 4.353515
2 9.137052 11.489733 5.623852
1 7.860768 11.229365 6.317376
2 7.497096 11.696920 7.373651
1 7.547146 10.904888 8.195244
1 8.095904 12.425407 11.140729
2 7.459633 11.751569 11.571613
1 8.219223 11.387865 0.043594
1 9.548002 11.765021 2.280888
2 8.653168 12.221506 2.891618
1 7.464836 11.306107 5.302305
1 6.551878 11.725141 5.399037
2 8.232608 0.260535 7.012050
2 7.637508 0.470474 7.963347
1 9.284346 2.039979 8.110007
2 6.964392 1.436261 10.359942
2 7.447080 1.528283 11.361449
2 8.659324 1.175291 1.218501
2 8.277861 -0.842220 1.526287
2 7.739620 1.147183 1.778368
2 7.019961 -0.260529 4.510479
2 7.911392 -0.046889 5.840457
1 7.787240 2.636351 6.721169
2 7.169769 1.583540 8.365997
2 7.442278 2.991092 9.097650
2 9.333215 2.396097 9.830576
2 8.582331 1.324893 12.159970
2 8.846249 2.255009 1.751214
2 7.375495 3.224982 1.230902
2 7.830088 2.002830 3.771877
2 8.953092 0.252821 4.843920
2 8.564365 2.348677 4.852971
2 7.404372 2.436893 5.190471
1 7.569016 2.626663 7.959549
2 8.512920 2.783970 8.774766
2 7.396517 2.407527 10.442147
2 8.105869 1.987921 12.827070
2 7.334294 4.268476 0.230687
2 8.694540 4.853488 1.381081
1 6.991414 2.570960 3.869873
2 9.091334 2.899428 3.913336
2 7.646779 3.484989 3.833072
2 8.167151 3.894072 7.297092
2 8.385302 4.815237 8.053775
2 9.253120 3.889729 9.315941
2 8.189134 4.508697 10.193256
2 7.323307 3.553271 10.325013
2 7.890164 5.453840 0.710889
1 7.295474 5.281726 1.708531
1 7.925482 4.335836 2.312668
2 7.513661 4.441821 3.162056
1 8.435825 4.434239 5.186149
2 8.214462 5.222216 5.779459
2 9.033814 5.947273 9.049245
2 7.479295 7.539761 8.784985
2 7.983584 5.141781 10.946724
2 9.127572 5.419639 12.525145
2 6.515537 4.658132 1.366562
1 8.907791 7.636648 1.755732
2 8.048351 5.562356 3.792777
2 8.432907 7.665561 4.487338
2 5.560646 4.939006 5.532219
2 8.900740 5.974731 5.989541
2 7.859854 6.680025 8.064447
2 8.695054 7.145038 9.019296
2 8.974069 6.741903 10.236668
1 9.065668 6.830988 11.422266
2 10.216225 6.269731 1.103515
1 8.946408 6.362916 2.849746
2 9.047775 6.048365 1.162716
2 9.054832 7.413192 5.617328
2 9.858927 7.213484 4.522120
2 8.946519 7.005678 6.671086
2 10.009377 7.211361 7.408573
1 8.607712 8.284424 9.637701
2 7.948411 7.232087 9.916957
2 9.834474 7.402509 11.015352
2 9.055169 7.987377 -0.144395
2 9.268020 8.831290 2.798054
2 8.056424 8.603211 2.682761
2 9.795811 8.883633 4.495893
2 7.475763 8.526639 5.872769
2 10.086262 10.497003 7.354997
2 8.551224 9.233131 7.877881
2 9.276904 9.492312 9.765797
2 10.126182 7.619215 9.588286
2 9.928180 9.558151 11.615405
2 8.778578 9.242344 0.534026
2 9.593886 9.796388 2.336670
2 8.588268 9.902496 4.301740
1 7.623548 9.111433 4.499185
1 8.668068 8.748811 5.165962
2 10.915395 11.420245 7.817589
2 9.943510 10.930764 8.443541
2 8.529345 10.428734 8.788043
1 9.016193 10.633031 10.374282
1 8.453602 11.360147 10.975856
2 8.200411 10.045900 0.146199
2 7.904516 10.659401 2.488469
1 8.984363 10.940559 2.419766
1 9.811339 10.097045 4.432998
2 10.006801 10.996396 6.049363
1 9.053110 12.980810 7.540315
2 9.960765 11.605749 7.258378
2 9.060220 12.320054 9.461093
1 10.403417 11.526839 10.424962
2 9.424335 12.735223 11.516135
2 8.924587 10.708164 0.420560
1 8.757394 12.268993 1.596752
2 10.278365 11.461986 3.104340
2 10.055626 11.940845 4.973377
2 9.285082 12.272057 6.698306
2 8.719287 1.240519 6.749954
2 8.583313 1.033291 8.784678
2 8.356248 -0.374243 8.623170
1 9.946878 0.393909 10.587648
2 8.569040 0.097128 12.748078
2 9.883375 1.395389 1.174511
2 8.351050 1.437835 2.874211
2 9.432297 -0.622744 3.876033
2 8.179432 -0.072682 3.953675
1 9.880915 1.842690 5.081725
2 8.323598 1.834083 7.656743
2 9.255438 2.270391 6.897788
2 7.872951 1.961719 9.323931
2 8.946050 1.273964 10.577843
2 9.559791 2.158970 12.152954
2 9.417438 0.778875 2.032116
2 9.873171 1.958589 2.482519
2 8.251944 1.066830 4.290083
2 8.857664 1.362476 5.253750
2 7.812109 1.135067 5.676700
2 9.664932 3.794205 6.660469
2 9.264558 3.300635 7.655591
2 8.497460 3.160632 10.092668
2 9.899279 4.288174 11.305300
2 8.673047 2.336176 11.436422
1 9.894224 2.678163 1.232117
2 9.124778 4.014779 1.785914
2 10.261744 2.147560 3.760643
2 9.097066 4.056133 3.932133
1 8.262090 2.136297 5.914323
2 9.424013 4.717683 5.451322
2 9.620527 5.969238 7.936064
2 9.372868 4.730597 8.453743
2 9.210970 3.945481 10.617019
2 8.751241 4.636997 11.598914
1 9.820449 4.617210 0.774813
2 8.194212 5.305163 2.458711
2 8.187009 3.285772 2.473657
2 8.992581 5.594979 4.779560
2 8.766491 3.093526 6.098833
1 9.077430 4.868163 6.703812
1 7.737731 5.509215 8.495997
2 10.289707 5.344654 8.869912
2 9.861693 5.460285 10.118710
1 8.840185 5.378812 10.203794
1 7.952086 6.294437 1.337482
1 9.345351 5.425061 2.365272
2 10.243444 5.461076 4.092229
2 9.196988 5.234492 3.434608
2 7.985020 6.101888 5.227587
2 10.121456 5.098760 6.286927
2 9.745591 6.935525 8.575070
1 9.988644 6.607699 9.721721
2 10.895328 7.976900 10.359771
2 10.274114 6.495303 11.921252
2 10.378717 5.325316 1.689394
2 9.828236 8.080252 1.243673
1 10.079279 6.358356 2.280993
1 9.637645 6.441549 3.610275
2 11.352864 7.161021 5.032401
2 9.217209 8.197445 7.148515
2 10.815858 6.752984 5.931731
2 9.965553 8.003627 8.417380
1 9.763913 8.641320 10.750964
2 11.125502 7.357960 11.786879
1 9.372097 9.047598 1.725345
2 11.733733 8.168363 1.818252
1 9.386722 7.297141 3.051992
2 10.754738 7.557379 3.973614
1 10.552317 7.680983 6.393600
2 11.774879 10.389132 7.567794
2 9.858708 9.313892 7.722524
2 10.840698 7.829704 7.349233
2 10.589869 9.717636 10.690058
2 10.635631 10.838387 11.392719
2 10.593731 10.464047 2.187338
2 10.418372 8.514603 2.064330
2 9.670506 10.268670 3.382218
2 10.141131 8.066233 3.126288
2 9.823029 9.838760 6.425930
2 12.186648 10.740080 5.923192
2 12.454321 11.392383 7.915389
2 10.314558 9.506820 8.995505
1 11.355378 10.039615 10.053369
2 8.900177 9.941074 11.155505
2 10.441129 9.776849 1.245470
2 9.705442 10.726104 1.344550
2 10.957011 9.232817 2.979700
2 11.208038 11.399640 4.532120
2 10.329101 10.813900 4.951250
2 11.060288 10.791722 6.674271
2 9.895852 13.618355 7.579613
1 11.384521 11.734119 11.305126
2 10.280703 12.555810 9.556686
2 9.765523 11.707744 12.893626
2 9.955268 10.702687 0.165320
2 10.594942 11.647173 1.937039
2 10.315272 12.595386 2.732981
2 10.253753 12.943783 4.850088
2 11.164356 11.205102 5.722602
2 9.650549 1.366224 6.059016
2 10.922708 1.865742 8.051017
2 10.806296 -0.491539 9.113429
1 9.729418 -0.163095 8.512926
2 12.186810 -0.793018 12.035126
2 10.968766 -0.256378 0.680308
2 10.163758 0.287147 1.469767
2 10.307995 1.098242 3.491769
1 9.295079 1.679963 4.289285
1 8.986815 0.528437 5.877478
2 10.013437 2.402802 6.052056
1 10.233066 2.665485 7.829371
2 10.096875 1.097319 8.731482
1 9.513715 3.024278 11.066987
1 9.746331 1.432385 9.716218
2 11.090417 0.692868 -0.969776
2 10.924227 2.559872 1.291566
2 10.951736 1.180830 2.254809
1 11.095178 2.999974 4.290055
2 10.895956 1.071400 5.828344
1 10.826219 4.471753 6.724595
2 10.198713 3.496800 8.617039
2 10.258438 2.356019 9.012780
2 10.009425 3.185698 9.886077
2 11.076587 1.780754 11.599143
1 10.216822 3.705809 0.092104
2 9.697665 3.317028 2.450584
2 11.083530 3.400864 3.216176
2 10.049767 3.277098 3.476727
1 9.844805 2.862123 4.574634
1 11.814242 4.968257 7.434949
2 10.854633 5.049921 7.869200
1 10.239514 4.394729 9.363838
2 11.328510 4.083923 9.222070
2 10.619839 3.590555 10.684971
2 10.634047 5.531152 0.159899
2 10.248921 3.670891 1.243361
2 10.118621 4.582146 3.510898
2 8.760917 4.199998 2.982611
2 10.036087 3.939426 4.894755
1 11.412078 5.469542 6.173374
2 10.864877 6.383473 8.096827
2 10.400330 6.493595 10.757123
2 9.687686 5.389500 11.621684
2 11.071809 6.773784 12.800467
2 10.155887 4.502852 2.372336
2 11.474996 4.112265 2.034386
2 10.214834 5.659446 3.024801
2 10.383644 5.981447 5.088823
2 10.639785 4.900072 5.099601
2 11.602671 6.177935 7.081099
2 11.900617 7.490840 8.398098
2 12.464944 7.347872 10.180565
2 11.114719 5.629077 11.291003
1 11.446813 8.440111 12.336945
2 12.079302 7.419339 0.979302
2 11.564468 6.981047 2.148000
2 13.046048 6.370995 3.454377
1 10.666611 7.214224 2.956772
2 11.564446 7.686862 6.081044
2 10.270077 8.662807 7.013882
1 11.002355 7.392408 8.823291
2 11.615465 7.929020 9.577406
2 12.174810 6.644852 11.222023
2 9.848879 9.048662 12.597764
2 10.878893 7.786650 1.074919
2 12.292120 8.873058 2.702929
2 10.746769 6.476303 3.972984
1 11.449040 8.286057 3.071243
2 10.489725 7.696941 5.363154
2 11.994151 9.556907 6.196547
1 12.309216 8.718934 8.408281
2 13.712435 9.050991 9.879105
2 11.128337 8.898791 9.849040
2 10.808472 8.902792 11.594672
2 10.947624 8.931769 1.043487
2 11.974055 10.014297 0.743870
1 10.152244 7.335474 2.065646
2 11.975469 9.950739 3.801474
1 11.393325 10.229674 4.552375
2 11.677886 12.225111 7.253165
1 10.913386 9.773238 7.036079
1 11.081416 8.463566 8.649265
1 9.805446 10.649352 9.731664
2 11.282137 9.955975 11.804608
1 10.697356 10.861222 1.094683
2 11.822482 9.819595 2.233419
1 11.783503 11.063740 3.227692
2 12.463884 10.292349 4.761546
2 10.792684 10.012368 5.717627
2 12.706454 12.648574 6.900371
2 11.773492 12.342073 8.686797
1 11.567145 11.339420 10.224919
1 11.135435 12.299296 10.334325
2 10.359088 12.136907 12.030183
2 10.279465 13.305911 -0.095365
2 11.818786 12.779936 1.375879
2 12.685503 10.841093 3.575554
2 10.634356 12.255806 3.914910
1 12.150513 11.476039 5.037808
2 11.994258 1.005292 6.194437
2 10.543382 0.202481 6.337403
1 10.554790 0.417370 8.058093
2 10.668752 1.251348 10.283150
2 11.707188 1.068241 12.332063
2 12.715591 -0.222099 1.571558
2 10.983742 1.175106 1.103127
2 11.550207 0.675524 4.390213
2 10.933458 1.606662 4.789970
2 11.358891 -0.010131 5.385065
2 10.862675 2.509055 5.427874
1 11.644826 1.199957 7.398200
2 11.260981 1.378784 9.041231
1 12.080635 1.376656 10.500835
2 11.281014 2.922068 12.170117
2 12.411611 2.480188 0.013015
1 11.506901 1.980773 0.569632
2 12.108615 1.593446 2.535868
2 11.339576 1.759418 3.512338
2 11.815520 1.937317 5.533139
2 12.282166 3.050231 5.874402
2 11.489287 2.321389 6.829452
1 12.717791 3.168947 8.049307
2 11.398818 2.672225 10.742663
1 12.784325 3.587675 10.477411
2 13.154522 3.439106 0.220284
2 10.950570 2.352782 2.427066
2 11.965268 2.889414 2.109666
2 12.688832 3.970140 3.274294
2 11.554050 3.797618 4.922677
2 10.920427 3.866964 7.509587
2 11.916509 4.090521 8.232286
2 11.239376 2.882790 9.504439
2 11.715254 4.864811 10.540402
1 12.382949 4.208878 12.893942
2 12.170330 3.417151 -0.720409
2 10.684766 3.413852 2.250261
2 12.033608 6.407586 3.076358
2 11.272398 4.373487 4.047511
1 11.283040 4.434361 5.789021
2 12.599867 5.514940 5.755398
2 11.487565 5.378031 8.706372
2 11.536917 6.420765 9.193863
2 11.014836 4.447451 11.518606
2 12.092533 6.517407 12.410610
2 11.195777 3.874270 0.479750
2 12.432810 4.638838 2.296282
2 11.542724 5.811626 0.919935
2 11.748196 5.235232 5.006280
2 11.942804 6.470627 5.766055
2 -0.732118 8.778727 6.952846
2 0.448662 6.999901 7.663973
2 0.289136 6.503951 8.590701
1 1.185829 5.544390 9.499981
2 0.411360 5.578872 11.290204
2 0.782801 7.861536 0.168812
2 0.954930 6.855514 1.880602
2 0.933277 5.592119 2.339778
2 -0.412282 7.275760 3.704699
2 0.339010 7.286886 6.511512
1 1.399868 8.443038 7.728187
2 1.548098 8.614946 8.731913
2 -0.129167 8.477158 10.529230
1 1.318460 7.771029 10.096303
2 1.143050 6.102659 10.451691
2 1.139768 7.283774 -0.923611
2 -0.282678 5.730371 2.052410
2 0.618406 8.604483 3.805658
2 -0.445854 8.367870 4.182583
2 -0.770198 8.719304 5.785159
2 0.045962 8.076528 7.515212
2 0.591274 9.110808 7.566286
2 0.346353 9.032488 9.323367
2 0.484617 9.550083 10.562407
1 0.892746 9.445311 12.546517
1 0.087297 8.761203 0.761390
2 0.401133 7.878605 2.424053
2 1.130931 9.288418 1.394134
1 0.837172 9.672639 4.243883
2 0.123950 9.188357 5.142586
2 0.987294 10.261484 5.936650
2 0.961053 10.132717 7.144114
1 -0.449309 9.691061 8.932793
2 0.353618 11.467819 10.727506
2 1.151407 10.829942 12.305915
1 0.148672 10.386441 -0.637244
2 0.519819 11.167888 2.363601
2 0.617754 10.018168 2.834834
2 2.612177 10.585984 3.649677
1 0.898604 11.793044 5.173749
2 0.974724 11.805264 6.211087
2 0.160762 11.420487 6.804083
2 -0.406394 10.978168 9.161407
1 -0.105407 12.556601 11.410630
2 0.635980 13.623056 12.316422
2 -0.471929 11.117309 1.757903
2 -0.507385 12.552161 2.470170
2 0.369175 12.152023 2.970638
1 -0.075517 11.732764 4.041543
1 1.936743 11.770504 5.691197
2 2.108241 0.477172 7.467559
2 0.072157 0.976463 9.467415
2 0.074149 -0.136786 9.586225
2 2.343921 1.134438 10.145356
2 2.134102 0.310182 11.243652
1 0.634000 1.022331 1.229380
2 1.435824 -1.269034 1.815752
2 0.108737 2.280695 3.374615
2 3.253846 0.362492 3.623669
1 0.104671 0.242147 4.858845
2 1.497581 1.635215 7.197221
2 0.416375 2.085508 7.547404
2 -0.100121 1.148790 8.343311
2 0.254595 2.221593 9.835099
2 0.751140 2.015202 10.857271
2 1.635795 2.113924 0.079082
2 -0.066548 1.794752 1.377167
2 1.060650 1.048607 2.224038
2 -0.093431 3.219163 3.841033
1 1.006305 2.622427 5.230949
2 -0.203782 3.494916 7.098689
1 -1.631520 1.305038 6.738410
2 1.538147 2.057028 9.109941
1 -0.496741 2.354598 8.568574
2 0.947112 2.949199 11.396757
2 2.230070 3.412441 1.361482
2 -0.149975 2.891978 0.982433
2 1.207754 2.289104 2.128244
2 1.310303 3.591713 3.877078
1 1.101143 4.021576 5.118087
1 0.569162 5.435926 6.782967
2 0.783536 5.212090 8.601782
2 0.347687 4.589694 9.544381
1 1.846633 3.873652 10.473135
1 0.717320 5.083569 12.285214
2 1.504446 4.352632 1.109741
2 1.709333 3.800141 2.706543
2 -0.564208 5.155485 2.956238
2 0.496176 4.439904 4.158451
2 0.270582 4.442886 5.977079
2 0.950557 6.253446 6.279853
2 0.252447 5.595515 7.872384
1 1.471326 6.209938 8.491898
1 -1.297172 5.077631 9.875803
2 -0.415629 5.578742 9.712105
2 0.416973 5.222904 1.164831
2 2.083840 6.292255 1.770226
1 0.185865 5.451451 3.720948
2 1.467284 6.441456 4.428093
2 0.125471 6.326481 4.676890
2 1.243771 7.272923 5.934702
2 1.786292 7.048633 6.949885
2 0.479559 7.528471 9.139455
2 2.312871 6.090851 9.258553
2 2.000315 6.776668 10.383372
2 1.797656 7.273162 0.093117
1 1.633108 7.859345 2.063401
2 3.999124 8.091629 3.350153
2 0.239962 7.672775 5.169634
2 1.881144 5.763080 5.380881
2 2.226151 7.678858 5.512453
2 1.218137 7.619119 8.314363
1 2.288847 7.254024 9.407796
2 2.590696 8.901241 10.956112
1 -0.265027 9.074864 11.508709
2 1.405263 7.230314 1.016262
2 1.396335 8.766131 2.583423
1 0.837106 7.544511 3.338286
2 1.690912 7.573708 4.362732
2 0.245861 8.502856 6.267350
2 3.052949 9.768133 7.574447
1 1.003212 10.045603 8.395587
1 1.634130 10.020546 9.116785
2 0.884022 8.972418 11.448228
2 1.802026 10.095600 13.270344
2 0.815313 8.184421 1.342023
2 2.519254 9.208237 1.279365
2 1.684124 8.650794 3.911217
2 5.219689 9.939270 4.387942
1 1.040275 8.388061 5.523560
2 1.556123 9.402841 5.191102
2 2.327467 10.381885 7.074827
2 0.414633 10.402153 9.873495
2 3.265276 9.792717 10.826206
2 1.943718 10.251995 10.619920
2 0.640677 10.638561 1.110202
2 2.634302 11.654911 3.329895
2 2.136208 9.503725 2.295282
2 3.225114 9.217013 3.491220
2 1.493830 10.436825 4.812761
2 1.950582 11.558614 6.835132
2 1.244169 11.839431 7.556346
1 0.633661 12.273418 8.381112
1 1.455131 11.817179 8.939740
2 2.244395 10.377967 11.861771
2 1.416006 11.764758 -0.310788
2 1.722925 10.934437 2.938860
1 1.976132 9.882146 3.786340
2 1.074967 11.777011 3.879898
2 2.702623 10.826646 5.248800
1 2.076161 1.101329 6.315801
2 2.379082 2.040606 8.316115
2 0.916932 0.781741 10.338391
2 1.357400 0.921464 9.343656
2 1.859123 -0.728914 10.099207
1 1.635121 0.981904 0.233807
1 1.402227 0.181123 1.493883
1 1.530040 0.097782 2.649376
2 0.894359 1.078787 3.254162
2 1.280773 0.567668 5.737622
2 1.544098 1.718540 5.737223
1 1.343557 1.401320 8.196897
2 3.825001 1.310503 9.241791
2 2.774530 1.338726 11.378583
2 2.564262 3.403922 12.463845
2 2.357008 2.603127 2.292901
2 1.576141 1.570258 1.486062
2 1.242921 2.760751 3.314271
2 1.554828 0.382258 4.503642
2 1.857331 3.397327 6.330940
2 2.429927 2.269817 6.743373
2 1.391164 2.611756 8.121358
2 2.156998 3.036811 8.860899
1 1.250469 2.709468 10.096214
1 2.739749 2.972557 10.475855
2 4.106855 3.898046 1.232317
1 1.964289 0.980212 3.100473
2 2.193265 2.073057 3.411948
2 2.777794 2.178955 4.637396
2 1.542466 2.174795 4.411886
2 2.208543 4.125291 5.588670
2 1.047903 4.324103 7.047628
1 0.533160 3.445824 9.376373
1 1.025230 3.959833 8.081942
2 1.525752 4.991826 11.456512
1 1.681152 3.788104 -0.430201
2 1.432674 5.623916 1.330751
2 2.319240 3.099581 3.534357
2 1.445660 4.700173 3.440280
2 2.151100 3.177276 4.741376
2 2.243935 6.575519 6.123840
2 1.334356 5.849749 7.538760
2 1.256371 6.629385 9.393267
2 1.547026 4.073759 9.054446
1 0.749678 6.416374 12.889241
1 1.941354 5.174155 0.299685
2 2.987029 5.618160 1.398123
2 1.874251 6.035232 2.904668
2 1.477105 4.822700 4.578504
2 1.874392 5.493519 6.642913
2 3.034677 5.184365 5.801389
2 2.187359 6.816631 7.946355
2 2.839591 5.586356 8.450763
1 3.586265 6.740914 10.392271
2 2.855917 6.840699 11.470317
2 3.764709 7.372127 -0.008261
2 3.127438 6.588055 0.575042
2 2.300216 7.314281 2.952129
2 3.126479 6.538213 4.048437
2 3.276150 7.371576 5.302221
1 3.885368 7.465920 6.401091
2 3.440481 7.200135 7.407804
2 3.665593 8.045953 8.105404
2 2.693077 7.910285 10.097786
2 2.238979 7.846433 11.401482
2 3.127414 8.266921 0.752548
2 2.635719 8.581673 2.139337
2 2.677751 5.654307 3.509721
2 3.718469 8.382444 4.506356
1 1.928437 8.379481 6.817108
1 3.751992 9.550549 6.259193
2 1.344636 9.222774 6.486375
2 2.554521 8.676848 8.998048
2 2.794324 11.103273 10.215452
2 1.780363 8.767574 12.572238
2 3.868621 9.308418 0.841312
1 4.874250 9.637588 2.707625
2 2.774543 7.884227 3.828964
1 2.872951 8.358618 4.888928
1 2.624225 10.002200 5.906675
1 3.613768 11.523081 6.205015
2 2.420631 8.043639 7.909943
2 3.388549 9.980248 8.931583
1 4.515623 10.809757 8.914057
2 2.957712 9.422099 12.407110
2 2.082211 11.551372 1.028249
2 3.382071 11.058497 2.618156
2 2.728198 10.480455 1.545759
1 4.819932 8.892004 3.591665
2 4.065123 10.387370 5.153908
2 3.116098 11.125875 7.348047
2 2.528597 12.041724 8.925446
1 1.287048 11.055116 8.338242
1 2.638604 12.159205 10.194340
2 2.694676 11.572860 11.477488
2 3.651256 10.869199 -1.076341
1 3.296415 11.608002 1.437700
2 3.645150 10.036339 4.142960
2 2.264340 11.773959 2.090813
2 1.893541 11.416444 4.378856
1 2.581673 0.209999 6.421938
2 2.903884 1.221665 7.624909
1 2.303459 -1.215884 9.197798
1 4.338330 0.933783 10.065123
2 3.448159 0.707719 10.512900
2 3.028016 1.439833 0.275544
2 3.118775 -0.165913 0.418917
2 2.999439 1.298409 3.185868
2 2.506226 0.029909 4.796644
2 2.956515 1.452484 5.556559
2 3.246648 3.083473 5.651284
2 3.224479 2.971562 6.858499
2 3.778321 2.871776 10.584038
2 3.533934 1.819267 10.368993
1 3.287816 2.431073 12.431749
2 2.261546 2.311041 1.091249
1 3.165362 0.940817 1.372285
2 3.565247 2.028219 3.994807
2 3.203324 3.302970 4.348699
2 4.063186 1.696299 5.396677
2 4.737590 4.069538 6.891178
2 2.103162 3.572838 7.829755
2 4.557646 3.148462 9.097277
2 1.743841 1.793149 10.788633
2 2.570580 2.645934 11.521799
2 4.567839 5.021839 1.360192
2 1.223478 2.805522 1.000620
2 2.866203 3.937892 2.238190
2 3.865643 4.236475 3.936111
2 3.483830 3.899760 6.320413
2 5.110857 5.818867 6.320474
1 2.945925 4.492092 8.141025
2 3.242300 4.834682 9.164804
2 3.198124 4.364513 10.339971
2 3.412381 3.599476 11.633569
2 2.498056 4.226158 -0.755337
2 3.324472 2.888118 1.274648
2 2.771385 4.591319 0.935362
2 2.662162 4.411133 3.959986
2 2.512697 4.378233 7.186592
2 3.052230 5.360523 7.156065
1 4.435970 5.620228 7.715815
1 1.747692 4.779326 8.009838
1 2.887094 5.554761 10.201858
2 2.745060 5.466121 11.784809
2 2.026985 6.239702 0.636572
1 2.652815 7.168079 1.710221
2 1.997516 4.982225 1.969859
2 2.721574 5.304046 4.691510
1 3.730947 4.606034 7.223942
1 3.159252 6.273760 5.559050
1 3.328363 6.522353 6.665028
2 3.592139 7.492087 9.132388
2 5.014726 6.260228 9.548411
2 4.426929 6.911982 11.369944
2 5.134771 6.738807 1.634877
2 3.163222 9.643120 2.221053
2 3.161308 6.569827 2.842908
1 4.324254 6.774261 4.408158
1 3.983343 5.569591 6.533817
2 5.130461 8.304842 5.657995
2 4.652426 7.701291 7.809884
2 4.679208 7.125287 8.794066
2 3.300999 7.919359 11.058576
2 3.821864 8.908440 11.887580
2 4.297292 7.001263 0.786080
2 3.907293 8.911780 2.132213
1 3.493883 7.633444 2.573187
2 4.997019 7.728026 3.830058
1 5.933822 9.825461 5.891152
2 4.324100 8.406994 6.815957
2 4.442194 9.491426 7.623931
2 3.896338 8.894697 9.042961
2 3.732325 9.114938 10.160976
2 5.187230 9.135556 10.263529
2 4.825789 9.244297 0.180979
1 3.547562 7.448999 1.346167
1 4.841370 8.524935 2.293642
1 5.609338 8.891860 4.014023
1 4.877918 8.743638 4.666973
1 5.067868 10.379178 6.586960
1 4.027516 10.655314 7.954983
1 5.387873 10.305420 9.990467
1 4.558611 9.634494 9.333665
2 4.440575 9.612798 11.268183
1 6.326133 9.623868 1.606223
1 5.067597 10.018473 1.522301
1 4.196610 10.345478 3.303117
2 4.843422 11.430949 3.194296
1 4.480898 10.959630 5.929261
2 4.212055 11.582228 5.190811
2 3.993576 11.915350 7.561757
2 3.572391 11.598784 9.560740
1 5.222298 11.402144 10.840504
1 4.771169 11.404217 9.725899
2 4.343452 10.225813 0.231074
2 3.947227 11.264165 0.658053
1 4.056231 12.639650 0.912496
2 3.732513 11.386296 3.823895
2 4.648803 11.068242 4.352087
1 4.711144 0.664504 7.185465
2 4.256958 0.755804 8.353476
2 6.423623 -1.492868 9.045842
2 5.507630 0.187012 10.197285
1 4.406349 0.932400 12.257181
2 4.149004 -0.122501 -0.155494
2 5.048975 1.303170 2.677181
2 3.275137 0.122493 2.614946
2 3.847818 0.539142 4.513617
2 5.378451 1.653365 4.714851
2 3.664849 2.022753 7.553092
2 4.682843 2.126631 6.973937
2 4.384433 1.935464 8.475633
1 4.641997 2.064816 9.804343
2 4.738211 1.017462 11.092620
2 5.018702 0.949995 1.258256
2 3.109757 1.929786 1.794505
2 3.980975 0.935426 2.355467
2 2.428781 1.247121 4.130879
2 3.563486 2.062242 6.357793
2 4.357173 3.030870 6.487172
2 3.338797 2.504607 8.782835
2 3.255007 3.612037 9.472154
2 5.558465 3.639581 11.197752
1 4.622860 3.144540 11.571554
2 5.034927 2.053058 0.457662
2 3.450187 3.051864 2.829309
2 4.672189 1.865912 3.708613
2 4.143903 3.010497 3.733327
2 4.286226 2.984580 5.174414
2 3.414172 3.581802 7.863210
2 4.130036 4.359188 8.702928
2 4.412683 4.919702 9.683190
2 4.380370 3.748867 10.295292
1 3.741229 4.722280 11.197386
2 3.580945 4.946395 0.261743
1 4.034659 3.835747 2.284162
1 3.337777 4.480778 3.028961
2 4.152106 5.250444 3.868234
2 3.616032 4.366942 5.084768
2 4.529261 6.716742 7.262965
2 5.173543 6.051684 8.328575
2 3.401938 6.391150 9.309751
2 4.308045 5.595888 11.164116
2 4.005253 6.067337 12.033852
2 4.050461 5.908921 0.983451
2 3.411935 5.460779 2.656372
2 3.743666 6.598663 1.811373
2 4.404077 7.000929 2.884390
2 3.922489 5.707413 5.069125
2 5.220234 7.746118 6.701233
1 5.519922 6.897816 7.603820
2 6.051939 6.572733 9.124314
2 5.389597 5.166150 10.820357
2 4.584942 8.263675 12.753465
2 5.625693 6.701774 -1.357997
2 5.772414 6.627594 3.477064
2 4.899973 5.762996 4.572723
1 5.777821 6.525036 4.998443
2 4.933027 6.724895 5.657049
2 4.011851 8.140495 5.650427
2 4.881125 8.595219 8.471742
2 5.145359 7.419848 10.058878
2 4.181215 8.231710 9.935722
1 4.378136 8.697090 10.993307
1 5.941608 7.363650 1.090070
1 6.631607 7.793943 2.367437
2 5.479997 7.548188 2.741358
1 5.792385 8.023264 4.683377
2 6.351260 7.434852 5.490776
1 6.001185 8.759214 6.215408
1 5.500673 9.208881 7.132774
2 5.713326 9.330883 8.455345
2 4.068107 10.318423 10.283369
1 4.691151 10.937002 11.661525
1 6.365032 7.793417 0.096467
2 6.664608 11.011517 2.518723
2 5.899551 9.991731 2.465129
1 5.580073 9.159233 5.217504
1 4.531809 9.444693 5.432193
1 6.075815 10.661960 6.922842
2 6.588027 10.460292 7.951332
2 7.527990 8.679401 9.439802
2 5.308028 9.984298 11.683165
1 4.262763 12.325295 10.906186
2 5.112062 11.414378 0.286524
1 6.937172 9.880696 0.648030
1 5.939894 10.252992 3.622465
1 6.251921 9.925521 4.585700
2 5.225075 10.508714 5.338597
2 5.136151 11.620066 7.162482
1 4.681753 11.943762 8.671821
2 5.897498 11.974528 8.847028
1 6.222095 10.312843 10.447612
2 6.512362 11.760931 9.964772
2 5.208091 12.282367 -0.621732
2 5.761352 12.300090 1.074073
2 4.549606 11.782728 1.392414
2 5.759752 11.382339 4.882264
2 4.464126 12.102462 6.336908
1 6.072644 0.304855 6.220630
2 5.480598 0.357542 7.953897
2 6.841121 0.533071 8.680888
1 5.126127 0.994583 9.324854
2 5.942038 0.896278 11.177230
2 5.503854 1.002377 -0.038097
1 6.623241 0.668994 1.573322
2 5.189581 0.203524 2.382696
2 4.879747 0.084861 4.307507
2 4.751629 0.810800 5.441816
2 3.503920 0.970885 6.524296
2 5.530208 1.171945 6.657785
2 5.608205 2.119990 7.557882
2 5.393782 2.328506 10.506302
2 3.818370 1.654747 11.455741
2 6.745939 1.928575 1.151024
2 4.234705 2.404564 1.708514
1 5.985538 1.646506 3.393745
1 5.608047 3.003158 4.893206
2 4.927596 2.173033 5.967864
2 5.963644 3.896786 6.323667
2 5.413047 3.169481 7.952959
2 5.463023 1.913167 8.960712
2 5.368101 4.061665 8.764457
1 6.876806 3.461424 11.302692
2 4.689304 3.346548 0.388039
2 6.113149 3.023238 1.111911
2 3.940212 2.029852 2.807290
2 5.378846 2.692875 3.131173
2 4.993556 3.838421 5.759873
2 6.744281 4.331439 8.255134
2 4.376301 2.923871 7.782365
2 6.718846 6.581871 10.695812
1 5.408653 4.230181 10.006948
1 4.326164 4.109181 11.887961
2 4.913825 4.988415 0.285628
1 4.991484 3.118826 1.963838
2 5.512082 4.622181 2.042657
1 5.316243 3.421803 3.927745
2 4.788521 4.540980 4.743436
1 6.039622 6.370672 6.663099
2 5.314862 4.546909 7.730281
2 6.055078 5.591503 7.538766
1 4.293674 5.658870 8.791351
1 5.985677 5.196777 12.530706
2 5.289159 5.954037 -0.117941
2 5.857728 5.966300 1.227718
1 5.220597 5.614601 2.533604
1 4.712203 4.641067 2.609835
1 4.597481 4.882544 6.069692
