1000
Lattice="12.599210498948729 0.0 0.0 0.0 12.599210498948729 0.0 0.0 0.0 12.599210498948729" Properties=:species:S:1:pos:R:3 Time=1000
2 8.241102 6.556673 8.762568
2 5.251911 5.456533 8.217905
1 6.314665 7.827455 8.979544
1 5.967538 6.797858 11.616292
1 6.389499 5.472894 12.842127
1 6.149778 8.216455 -0.112631
2 5.529468 5.886568 0.663434
1 6.824576 8.115751 2.483367
2 8.647780 6.864661 4.916437
1 6.938306 6.532280 7.409202
1 6.842948 10.227278 6.927429
2 6.768877 8.895238 6.921725
2 5.675085 8.750670 8.681307
1 6.283281 8.704100 10.104363
2 6.476687 7.000267 12.496357
2 7.617602 8.575122 -0.321468
2 6.291496 9.210397 0.402708
1 6.938341 8.347607 3.687948
1 7.643419 7.711674 4.646015
2 6.883100 6.766476 5.053424
1 5.527997 10.385636 8.230095
1 6.325774 9.696298 8.171917
1 7.020165 8.710519 9.102999
2 7.394381 9.057389 10.209419
2 6.834310 8.457449 11.088869
2 7.799269 9.983358 -1.299814
1 7.326630 9.504593 2.079583
1 7.605505 9.038186 3.222457
1 6.890810 10.620582 3.987851
1 7.236358 9.821424 5.995296
1 7.130943 11.202059 5.917671
2 7.765704 10.579648 7.684839
1 7.021773 10.453043 8.525580
2 7.401788 11.311145 11.321338
2 7.236176 9.606693 12.289555
2 6.497937 11.078078 0.987389
2 6.828716 12.642730 2.484117
1 8.527919 9.909063 3.930431
2 5.998645 10.515175 4.584326
2 5.283932 9.541372 4.408399
1 6.906953 12.340744 7.839118
2 5.407445 10.813021 9.473628
1 8.622364 13.092251 8.918160
2 6.124559 12.254506 11.354259
2 5.912573 10.975679 11.846809
1 7.410465 10.599883 0.011964
2 7.444749 11.672191 1.479077
2 7.427162 12.892602 3.956668
1 5.487863 12.557564 5.292598
2 6.224987 11.726153 5.556601
2 7.658655 1.307926 6.544890
1 6.001255 1.529974 8.417207
1 8.119797 0.130722 10.067085
2 6.307096 0.689685 9.794510
2 7.622393 1.093079 12.062296
1 8.743132 0.303410 0.744477
2 7.535416 1.713241 4.347553
1 6.283247 0.914363 1.939723
2 5.411091 1.018861 5.146702
1 6.359219 0.510224 4.987561
2 7.718119 2.382638 5.355454
1 6.809393 3.330293 9.254037
1 6.594453 2.527223 10.310898
1 6.804925 1.785407 10.952437
1 7.231802 -0.035057 12.275514
1 7.649945 2.458104 0.108147
2 7.683197 2.346655 1.241423
2 6.806325 2.064138 2.199857
2 7.659506 0.823961 5.120005
1 6.382959 1.765047 6.144785
2 7.165065 3.040576 6.749433
1 5.637580 3.964448 8.533181
1 6.786136 3.663585 10.370097
2 5.445499 3.266752 12.629501
2 7.846516 2.526330 10.836179
1 6.542162 1.944984 0.795147
1 7.376186 5.665662 1.301387
2 6.023945 3.865708 3.897882
1 6.672479 2.616687 5.549332
2 6.524928 3.882401 6.662796
2 7.447601 4.269577 7.392305
2 6.636138 4.444121 8.877684
1 5.973353 4.716318 9.957066
1 7.180912 4.842958 10.515619
2 7.423839 5.021917 11.714355
1 6.319513 4.295109 0.266586
1 7.240878 3.906472 1.181692
2 5.930518 5.001313 3.115263
1 7.834714 4.101684 4.335209
1 7.078499 3.098122 4.553821
1 7.244931 4.645977 6.108578
2 7.229836 5.497106 8.124176
1 7.204036 7.448698 8.162819
2 7.484521 6.298303 10.274944
2 7.769253 6.127190 11.717509
1 7.510276 4.980145 0.256554
2 9.392261 4.835911 3.686488
1 5.900589 6.755477 4.877352
1 5.841982 6.075151 4.024354
2 6.808089 6.318887 6.200058
2 7.684454 5.421499 7.215850
1 6.806328 8.721996 8.029171
1 7.026553 6.878697 9.116394
1 7.496713 7.672293 11.438241
1 8.335098 6.935743 11.217872
1 7.572829 7.445761 0.463485
2 6.789779 6.498828 1.096227
1 6.869222 6.161919 3.325851
2 8.172958 5.889562 4.984568
1 7.343129 7.396616 5.880391
2 8.858441 7.960536 7.077624
1 8.486547 8.867366 8.034299
2 8.200144 8.001638 10.377982
1 10.402584 6.849600 10.873592
2 8.127220 8.503154 11.340949
1 8.520629 7.716368 0.721131
1 7.842728 5.698928 2.886822
2 7.861993 7.866582 2.675481
1 9.721262 7.486549 5.872788
2 6.262179 9.017992 4.784225
1 9.421509 9.383069 7.835923
1 7.714885 10.060646 9.291542
2 6.743836 7.847893 9.913944
2 8.582392 9.439493 10.767218
2 8.677316 8.928488 12.255963
1 8.174079 9.096114 1.655630
1 8.405174 9.446302 2.735604
2 9.002143 8.298390 4.050256
1 7.920292 8.919628 4.996175
2 8.698816 9.353903 5.825953
2 9.430809 11.004675 5.438621
2 8.007584 10.714168 6.695887
2 9.159818 9.987709 8.917408
2 9.174895 10.204818 10.189817
1 8.664207 12.051857 11.482360
1 7.892881 10.654219 1.671398
2 7.068986 11.098998 2.788203
2 7.685932 11.205809 4.665539
2 9.133793 10.054506 5.046117
1 8.681284 11.700615 5.181091
1 9.479300 12.830091 5.832941
2 7.993215 12.536810 7.479471
2 5.607982 12.499532 8.025377
2 7.221288 10.333900 10.335665
2 8.862538 11.024199 12.986132
1 8.964332 11.919525 0.996016
1 10.045959 12.153538 0.772172
2 8.025431 12.203946 2.978829
2 8.091010 10.619542 5.565086
2 7.963745 12.286200 6.212582
1 8.506234 0.650183 6.802672
2 7.379037 0.828586 8.144671
1 8.686164 0.918008 7.892561
1 8.186070 1.460692 9.624843
2 7.971088 0.981380 10.760551
2 9.119255 1.827724 1.371186
2 8.431873 -0.032346 1.821711
2 9.116275 0.600829 3.144754
1 7.319992 -0.566904 5.372813
2 8.426902 -0.690751 4.039563
1 8.063243 2.263143 6.716553
1 6.706839 1.831308 9.004231
2 9.182928 2.277117 9.103322
2 8.802492 1.366452 12.061518
1 8.878493 2.559273 12.465415
1 9.533810 3.503646 -0.394302
1 7.975680 2.575168 2.366178
2 9.046507 2.978207 2.865604
1 9.083185 0.828570 4.463646
2 9.309212 2.333222 5.457876
2 8.771097 3.789194 6.774841
1 8.583804 2.072118 7.515205
2 7.785754 2.838330 8.676091
1 7.251200 2.339811 11.687390
2 6.739015 2.965487 12.558524
1 7.426795 3.948914 0.030238
2 9.265938 3.315578 1.600890
1 6.830945 2.929520 3.553741
1 8.405126 2.861476 4.289930
1 7.013469 3.670407 5.532626
2 8.005258 3.159487 7.637189
1 9.128656 4.135462 8.387907
2 9.360796 3.976800 10.061894
2 7.466926 4.635735 9.464378
1 7.759072 4.041238 8.386353
1 8.417604 5.751982 0.998541
2 7.940857 4.974069 1.866642
1 7.352823 4.051301 2.428501
1 8.386241 4.223703 3.273133
1 9.039851 5.283545 5.039215
2 7.923503 4.595987 5.383395
2 8.868448 5.322008 8.695028
1 8.553164 7.503260 9.050122
1 8.149982 5.328760 10.976521
1 9.182845 6.427641 11.156865
2 6.962988 5.312369 2.261825
1 8.222750 6.803254 2.745991
2 6.964837 4.977233 3.998711
2 6.955239 5.651038 5.336049
2 7.881503 6.313372 5.855006
2 8.284840 6.796280 6.664552
2 9.290700 8.176398 8.503953
1 10.412088 7.784546 8.332005
1 8.312697 5.759569 10.060526
2 8.632200 7.094709 10.061771
2 12.269474 8.280753 0.958755
2 10.687929 6.167585 2.913792
1 9.960681 7.434031 3.371905
2 8.552010 7.987134 5.733320
2 10.301312 8.479149 5.163764
1 9.651320 8.589972 6.060963
1 10.752436 7.910876 7.288511
1 8.216671 7.735444 8.048521
1 9.326376 7.575577 10.647289
1 9.869524 7.430070 11.617873
2 9.899667 8.272808 0.656083
1 8.111404 10.557233 2.930639
1 9.147671 8.944269 1.845579
2 9.710337 7.436952 4.560149
1 7.933897 8.624604 6.345277
1 11.007585 10.882484 8.818642
1 8.147492 8.942524 9.069236
2 10.202357 10.504552 9.448312
2 11.020727 7.803401 10.775633
2 11.194160 9.734270 12.744720
2 9.659357 9.623918 0.457704
2 10.357927 8.730464 1.673913
1 9.324559 11.216892 4.053828
1 9.203316 9.037549 4.700285
2 9.845772 9.899244 4.192870
1 9.911962 11.013435 6.678859
2 11.025567 11.626225 7.643086
1 9.661856 10.965487 8.476517
1 10.206880 10.182280 10.527425
1 8.650325 10.855366 10.852217
1 8.747317 9.980979 0.575327
1 8.873908 10.729347 2.094204
1 9.223771 10.348278 3.041536
2 10.522620 11.821441 4.025165
2 10.328732 10.601840 4.924323
2 9.155178 12.360433 8.306077
1 10.344365 12.339646 8.416872
2 9.421579 12.590400 9.821889
2 10.105198 11.637070 9.759402
2 10.291546 12.815347 10.622483
1 9.268365 12.300160 -0.205270
1 10.337183 11.647946 1.643327
1 10.504474 12.457599 2.854697
1 9.404496 12.300120 4.098011
2 10.954956 12.736374 5.725995
2 8.829976 1.610405 6.141091
2 9.689150 0.401200 7.740262
1 10.819636 1.027718 9.261971
2 9.149966 0.662601 10.952516
1 8.277990 -0.428186 12.514873
2 7.745260 1.249527 1.654105
2 7.651685 1.343157 2.776768
2 10.169581 0.421635 3.832987
2 9.776171 -0.492470 5.079980
1 11.079499 1.669636 5.884660
2 9.281919 2.460885 6.758367
1 9.296971 1.289355 6.922615
2 8.914381 1.981427 10.413872
2 9.713997 0.680713 12.232586
2 10.222916 0.928758 13.278963
2 9.936193 2.168325 0.448704
1 9.954558 2.522399 1.574370
2 9.301835 1.906726 3.133508
1 10.033038 0.664837 5.072152
1 8.630548 1.708177 4.945693
2 10.323208 3.435395 7.472082
1 9.804439 2.864621 8.183824
2 9.222868 3.075494 11.021751
1 10.290615 4.795514 10.866974
2 8.342959 3.350056 11.835966
1 10.178168 4.046030 0.778259
2 9.603630 5.183960 1.202873
1 9.648694 2.087673 4.105738
2 10.269197 4.296324 4.293284
1 8.477325 3.059279 6.153728
2 10.539349 6.778231 5.312991
2 10.425097 5.799525 7.292950
2 10.107377 4.639687 7.875808
1 9.994909 4.589749 9.114040
2 9.158270 5.409741 11.106814
2 9.706554 5.311843 -0.165040
2 8.328485 3.905471 2.172285
1 7.705671 3.347634 3.110875
2 10.906697 3.835217 5.593133
1 7.973456 3.395497 5.225673
2 9.335437 5.047269 6.739199
2 9.413773 6.884277 7.240568
1 10.407511 5.573280 9.339634
2 9.872325 6.910011 9.079553
1 8.457939 4.567613 12.312125
1 8.617833 6.577773 0.014585
1 9.866372 5.384775 2.447778
2 7.998129 5.353598 3.856479
1 11.454251 4.893482 4.457436
2 8.890180 5.904601 3.906982
1 9.976763 6.316784 6.522931
2 10.648885 6.786414 7.962971
2 11.244414 6.870474 10.363303
2 12.022643 8.648589 10.772814
1 9.993423 6.421348 12.550306
1 11.696521 4.973796 1.155490
2 9.489221 6.383956 1.806419
2 10.279874 8.519314 3.409499
1 10.662856 5.405510 3.748063
2 10.596642 6.269664 4.359383
2 10.743416 9.045818 5.955850
1 11.154688 6.852071 6.977417
2 9.684718 9.030409 9.888701
2 11.593686 7.295897 8.164604
1 11.768412 8.862691 12.049428
2 12.688507 10.057511 2.293787
2 11.476142 5.947639 1.714036
1 10.969547 7.780985 1.990762
1 11.194917 7.206774 3.621425
1 12.294093 7.991230 5.851043
2 12.915437 10.700493 7.712464
1 10.168987 8.616752 7.633961
2 11.277982 8.557210 9.007999
2 11.499147 9.928369 11.621845
2 10.776167 9.477596 10.893820
1 9.898286 9.672327 -0.947532
1 11.027009 9.772625 1.158416
1 10.558294 10.670914 3.540574
1 9.087134 7.345387 2.432504
2 9.251863 10.026039 6.538648
1 11.496826 11.729422 6.241950
1 12.580962 11.298394 8.572618
1 11.844291 11.258952 9.918116
2 10.816281 10.883949 11.662298
2 8.932789 10.209954 11.688180
1 9.793640 9.727724 2.502441
1 9.944167 10.674363 2.207546
2 10.727623 9.334468 2.669407
2 11.271713 11.329963 5.161227
2 10.803982 10.269628 6.275884
1 11.767415 10.649884 5.882121
2 10.697226 13.292000 6.783102
2 11.253387 12.863696 11.131444
1 10.515650 12.569504 9.632473
1 9.851541 10.951211 12.185302
2 9.757402 10.913139 1.032231
1 11.015034 10.795092 2.321347
2 10.911993 14.210292 4.336764
1 10.876982 12.633382 4.729598
1 13.366105 11.648405 6.053830
2 9.988210 1.420729 5.990650
1 11.100514 2.154244 8.279701
1 11.419248 -0.753113 8.715123
2 9.945354 1.041007 10.058085
1 12.034113 0.487160 11.923283
2 10.804105 -0.667731 -0.294794
2 10.726404 0.180140 1.872055
2 9.991816 0.916544 2.365378
1 10.526262 2.620124 3.566577
1 8.614383 0.316429 5.309826
1 10.560746 2.749442 6.491870
2 10.155906 1.949656 7.748886
1 9.787276 0.499305 9.088466
2 9.734396 1.623167 11.155121
1 10.855531 2.030932 10.974091
1 11.857897 1.536256 -0.579802
2 10.697312 1.678378 1.435400
2 11.309112 1.080104 2.564207
1 12.871193 2.238728 5.071332
1 10.286082 2.969529 5.510978
1 11.208632 4.341591 6.870324
1 9.690709 1.412671 8.612031
2 9.892963 2.517538 10.269668
2 11.639359 2.631168 9.055979
1 10.896188 1.729444 13.031725
2 12.501118 4.374360 0.403046
2 11.011043 2.346891 2.596301
1 10.572987 4.305773 3.247748
1 10.969039 2.905000 4.584799
2 9.811946 3.565450 6.175652
1 11.575954 4.972202 5.915749
1 11.197885 5.013697 8.540632
2 10.714893 3.815884 10.239561
2 9.731165 4.955528 9.984210
2 11.167948 4.313562 11.124047
1 10.983629 5.754182 -0.205409
1 9.673347 3.365822 3.828659
1 10.874191 3.460169 1.536061
1 9.038804 4.076907 4.675441
1 8.787123 3.899175 5.669675
2 9.905497 5.728829 8.397199
2 11.627231 5.929168 7.902983
1 10.633045 5.917069 10.483201
2 10.186660 5.962102 11.575576
1 12.860306 5.601056 12.982888
1 8.764957 5.207005 2.558003
1 11.545820 4.245432 2.667881
2 11.795460 5.640949 2.793156
1 10.419321 4.663239 5.942980
2 11.711048 5.706088 6.551517
2 12.383684 6.611789 7.546446
1 9.808306 8.020464 9.738690
1 12.364872 6.572958 10.341958
1 10.901226 7.099986 12.027498
1 11.715241 6.743224 13.463898
1 10.191188 7.296537 1.165032
2 12.030403 6.610691 3.197101
1 13.545673 5.933421 3.948028
2 11.050982 7.714086 4.978159
2 12.173119 6.894600 6.189638
1 11.731845 7.823338 7.006226
2 13.441836 8.945163 9.146380
1 12.237354 8.018459 8.809917
1 11.876719 6.922689 11.481920
2 10.365123 8.833636 12.386277
1 13.302981 7.646948 0.715750
1 11.601953 8.586645 3.153939
2 11.883090 7.979771 4.044831
2 13.006559 8.718863 3.260296
2 10.952483 7.716046 6.150942
2 12.622214 9.210010 5.625241
1 12.478255 8.883483 8.059163
1 12.980531 10.643478 9.777514
2 11.486128 10.132876 10.266645
1 12.078917 10.896931 11.106419
2 11.836253 9.664243 2.919482
2 12.040068 12.391050 1.496724
1 11.157492 8.828587 4.287334
2 11.912450 9.862901 5.195412
2 11.663544 8.684265 5.168629
1 13.339915 11.459974 7.045041
2 11.873487 9.820335 6.574302
2 11.605128 9.850912 9.067216
2 10.883573 11.333718 10.422273
2 12.015889 10.605947 12.260810
2 10.817021 10.974956 0.454820
2 12.576867 10.778522 1.544492
1 11.525126 11.229071 3.627751
2 11.195192 10.127246 4.227239
1 12.827564 10.491421 6.488629
2 11.981010 12.172037 7.667544
2 12.749946 12.194760 9.325090
2 11.783969 12.316873 10.155851
1 9.933983 11.420518 11.016717
1 12.427740 12.055805 12.267880
2 11.129117 12.787958 0.388271
2 12.101227 14.760115 0.789748
1 11.995931 12.130847 3.227825
1 11.914121 12.333918 4.771980
1 12.355750 11.629925 5.324886
2 11.830630 0.453238 6.638518
2 11.100884 1.179367 7.787160
2 11.461515 1.492363 10.100281
2 12.976410 1.494879 9.433892
2 10.801402 1.215751 11.482481
1 12.636981 0.688316 1.068945
1 11.728045 1.011606 1.556461
2 11.305763 0.321792 3.648203
1 11.672502 0.760490 5.255469
1 11.784155 1.757020 4.812630
1 12.586362 0.604050 5.835064
1 11.909988 2.041013 7.290145
1 12.027545 1.657400 8.856231
2 13.839514 2.339709 9.562717
2 10.480303 2.422471 12.042969
2 12.765986 2.101673 -0.493418
1 11.638410 2.405447 1.663565
2 13.121352 1.976930 2.765409
1 11.572470 2.692545 3.543362
2 12.656573 2.704765 6.835504
1 11.404684 2.668929 5.849302
2 11.600604 3.813247 8.003907
1 14.520403 2.834665 8.695354
2 12.411193 2.696571 9.768913
2 12.200273 2.719183 10.881993
1 12.872711 3.105052 0.195207
1 11.146249 3.405565 2.614941
2 12.668665 2.569345 3.936247
2 14.394173 4.713843 4.537480
1 11.751061 3.608003 4.947548
2 11.666183 3.427687 6.921948
1 12.889011 4.764474 8.345747
2 11.103877 2.722054 10.206728
2 11.049835 4.844648 9.632588
2 12.326148 4.467020 11.351994
2 13.613389 3.925069 0.427405
1 12.352927 3.211145 1.847094
2 11.836807 6.680167 4.381945
2 12.405444 5.800155 4.045801
2 12.310745 3.844658 6.266452
2 12.811608 6.975703 4.430262
1 11.584772 5.652408 10.117845
2 11.873378 6.794054 9.364600
2 11.283186 5.575764 11.276004
1 12.569741 6.255018 11.783085
1 11.442536 2.629088 -0.237284
2 12.494635 5.485347 1.766556
1 13.277319 4.740240 2.332305
2 12.404718 4.529233 5.422769
1 12.061465 5.938560 5.420779
2 -0.202146 8.779991 6.823278
1 -0.200807 7.921538 7.860734
2 0.249130 7.507720 9.689766
1 -0.491534 7.585726 10.450357
2 0.743662 6.482173 10.749521
2 0.631649 6.606488 -0.047369
2 0.330712 7.888268 1.815768
1 -0.537654 7.463555 2.543442
2 0.351039 7.495290 3.396151
2 0.415570 7.563455 6.680153
1 0.755996 9.320417 6.660175
1 1.457221 7.485914 8.752544
2 2.060355 9.464007 9.523287
1 0.419777 8.424477 10.538548
2 0.507934 7.427617 11.728781
1 0.549217 6.437693 1.211107
2 -1.010677 8.698210 2.062017
1 0.897288 8.209615 4.279750
2 -0.337037 9.563428 3.920692
2 0.061918 8.434104 4.847325
2 1.389885 8.291595 6.876777
1 1.376466 9.082297 7.594080
1 0.871429 10.054313 9.138318
2 1.078943 9.183922 11.168982
1 1.404329 10.250309 13.189641
2 0.793243 9.281818 0.871099
1 0.552669 9.025307 2.179976
2 1.332680 11.740847 0.823221
1 0.271410 10.473353 5.431076
1 1.260576 10.247855 5.830310
1 1.565525 11.250704 7.775319
2 1.241514 10.122325 7.168164
1 -0.604400 9.961456 7.634570
2 0.050321 11.609455 10.580715
1 0.601436 9.387140 12.351928
2 0.642811 10.981240 -1.081692
1 1.629637 10.306437 2.417514
2 0.625645 11.294434 2.716458
1 2.296352 11.076914 3.968557
2 0.677152 10.589760 4.517624
1 0.378902 14.100133 6.807647
1 -0.435009 11.316076 7.119892
2 -0.236345 13.197255 9.724932
2 -1.176609 11.732001 11.295283
1 0.450339 13.467395 12.745286
1 0.391963 11.973699 0.632276
1 -0.321042 13.213803 2.568070
1 0.742316 12.400414 2.626242
2 -0.319314 11.075567 4.374787
2 1.640553 12.269457 7.025118
2 -0.269368 0.904840 7.646102
2 -1.043563 0.384068 8.852554
1 2.012167 1.093429 11.524390
2 0.977045 1.749042 11.120963
2 2.421422 0.842804 14.669728
2 1.183306 0.798810 1.458396
1 0.759466 1.907073 0.474939
2 -0.519947 1.045235 3.600207
2 1.213529 -0.234831 4.689037
1 0.035619 0.406307 4.825353
2 2.056647 0.303808 7.858738
1 1.402863 2.032340 8.122089
1 0.222534 -0.126318 6.957695
1 -0.018586 1.376083 10.631381
1 0.217554 0.904288 11.544988
2 1.449993 2.334445 1.506527
1 0.013602 1.763453 1.588668
2 2.656435 2.052017 1.822100
2 0.695945 1.070721 3.708119
2 0.851308 3.826815 5.024198
2 1.210230 3.272618 7.451542
1 -0.050567 1.918835 8.089067
2 -0.195102 3.571764 8.947511
1 0.620422 2.636158 10.416642
2 0.322088 3.539148 11.851860
2 1.452871 5.154435 0.663694
2 1.424827 2.366798 -0.419444
2 0.763125 3.049445 2.377811
1 1.217287 3.189361 3.673645
2 1.840742 4.840266 5.594833
2 0.015498 4.263091 7.264436
1 -1.922833 4.043726 8.818556
1 0.867918 5.216591 9.003405
1 1.320894 3.500841 10.710232
2 1.001611 5.135542 12.229558
2 2.011575 4.567520 1.705226
1 1.568152 3.027123 0.702545
2 -0.319628 2.639716 2.707945
2 0.844116 4.740448 3.638680
2 1.444257 4.553290 6.671932
2 0.197168 4.899608 6.377405
2 0.004907 5.921196 8.758098
1 1.139242 6.799050 9.739224
1 -0.095519 5.109935 9.465750
2 -0.144938 5.285034 10.487270
2 0.087853 6.739682 2.144973
1 3.046939 7.633295 2.482683
2 -0.763757 4.836748 3.478391
2 0.748301 6.503151 2.857799
2 0.638676 5.347076 5.096389
2 0.690082 6.306143 6.956549
2 2.584246 7.203303 7.200031
1 1.508114 7.807441 9.745522
2 2.072164 6.702982 10.677092
1 1.055691 7.560601 10.968393
2 1.570440 6.924513 0.743216
2 2.286572 6.038953 0.704952
1 3.231305 7.479273 3.680524
1 0.771013 7.313302 5.321158
2 1.120400 6.081297 5.870704
2 1.714535 7.033868 6.293017
2 1.421925 7.101263 7.580203
1 2.591137 8.030331 9.787184
2 3.785992 8.839243 10.206953
1 -1.135371 9.065999 10.010513
1 1.491283 8.551839 2.135199
1 1.305976 7.460885 2.487759
2 1.354820 7.245567 4.387883
1 1.664862 6.951257 3.301287
1 0.612748 8.381425 5.868414
2 2.150464 10.163157 7.848265
2 2.209479 12.337051 8.799110
1 0.986370 11.099418 8.741378
2 0.291145 8.582693 11.736616
2 2.857826 9.646750 13.860432
1 2.221373 7.878663 0.523514
1 2.443853 9.617612 2.646970
1 2.035314 8.534390 4.583847
1 3.692412 11.115600 4.458298
1 2.197887 10.035184 6.384958
2 2.096483 11.134462 6.729130
2 3.172240 10.645502 7.045830
2 -0.026179 9.727256 9.984889
2 2.351298 9.511712 11.806678
1 2.175153 12.084173 11.013112
1 2.084029 10.588370 1.438947
2 3.445338 9.916860 2.890013
2 2.355145 9.622260 3.702775
1 3.575049 8.880826 2.683644
2 0.835088 9.250659 4.634274
2 0.703950 11.968515 7.999807
2 0.830646 13.124246 7.874845
1 0.786836 12.982584 9.192412
2 1.691907 10.614045 9.892984
2 3.335060 10.162206 11.888060
1 0.914271 12.779711 -1.057832
1 1.620667 10.632373 3.351187
1 0.814435 10.011905 3.487095
2 1.646137 13.249954 4.138754
2 2.489312 11.764461 5.317209
1 0.973816 0.520010 6.243558
2 2.777989 0.730023 8.935537
2 1.679774 1.314075 9.973179
2 1.237353 0.161057 10.214529
2 0.257068 0.123941 10.558096
1 1.524362 2.613262 -1.488961
1 1.704242 -0.920340 2.519694
1 0.572093 0.024473 3.727370
1 1.591235 1.758812 2.299049
1 1.923125 -0.558094 3.778713
1 1.092157 1.860200 6.067858
2 2.567592 1.879568 8.922644
2 2.900526 1.217091 9.976640
1 2.508218 1.776527 10.869120
2 2.329589 3.608980 13.613071
2 2.773321 3.026258 2.158912
2 1.346020 0.829707 2.879517
1 2.316987 3.868892 3.714206
2 1.214571 0.932410 5.097737
1 3.151113 2.445583 6.458741
1 1.645042 1.110124 7.142792
1 0.548716 2.688691 8.792268
1 2.343088 3.725742 8.284495
2 2.260505 2.708097 10.208249
2 1.884686 4.046768 11.561695
2 3.867345 3.269859 -0.459241
2 3.434604 1.646964 3.265647
1 2.678398 2.633638 3.399187
2 3.044106 1.301485 4.991392
1 1.993044 2.001497 5.208740
1 2.135931 3.101267 6.791348
2 1.436805 4.532581 8.069504
1 0.331161 3.717621 10.284715
2 1.160482 4.042864 9.193602
2 2.123448 5.618149 12.107672
2 2.312237 3.336620 -0.111348
2 1.713251 6.027066 1.697985
2 2.203514 5.287364 2.478407
2 2.862883 4.809538 4.016876
2 3.220996 3.796532 4.948632
2 1.617063 5.728628 7.003711
1 0.844633 5.584812 8.057029
2 2.288399 6.759485 9.297198
2 1.145450 4.971749 10.078620
1 1.525125 8.545817 12.695212
1 1.857615 6.889987 -0.796893
1 2.818245 6.505096 1.846201
1 2.070744 5.505391 3.490356
2 2.655097 6.324969 3.091273
1 -0.073086 5.502433 7.640398
2 2.817891 6.546989 8.193796
1 1.543733 5.978996 8.903916
1 3.137997 5.348402 10.181526
1 4.056164 6.416823 10.405593
2 2.985231 7.966377 11.094911
1 2.167121 7.522132 1.723278
2 3.228172 7.315064 0.786472
1 3.617565 6.828244 2.660365
1 3.600233 6.034065 3.790431
2 3.312781 6.361300 4.894513
2 3.662619 8.965527 7.308444
1 3.207759 6.960139 9.916530
1 3.435262 8.612006 8.717256
2 3.444635 7.495688 9.040086
2 2.358541 8.935031 10.636032
2 3.565153 9.386314 0.213921
1 4.076370 8.031562 2.055703
1 2.667261 8.660224 1.451067
1 3.057931 8.585738 5.307326
2 1.861852 8.594083 5.675499
1 3.858290 9.923912 6.612931
1 1.596724 8.119657 7.966368
1 3.889564 10.750425 9.159849
1 4.567903 11.022271 11.859645
2 2.622336 10.705124 13.017025
1 2.792679 11.425077 1.596032
1 6.043246 10.301357 2.368311
2 2.227255 8.514593 3.211096
2 3.533399 10.087907 4.029870
2 2.615308 9.096815 6.296299
1 3.861900 9.729618 5.499211
2 2.434844 8.701276 7.575221
2 3.073584 11.192325 8.499307
2 4.495100 10.174374 8.303238
1 2.546833 7.956543 12.117282
1 3.751703 11.653316 1.508676
1 3.585016 10.813967 2.388284
1 3.936141 10.847063 3.468150
1 4.588370 8.223185 3.314361
1 3.655422 12.093661 4.996291
2 2.716663 12.177088 6.687113
2 2.647287 11.273708 9.454189
1 1.998254 10.667147 8.795522
2 3.268253 11.716657 10.452832
1 2.355348 11.080425 11.909183
2 3.291321 11.532326 -0.015219
1 3.029190 12.500988 1.692698
1 2.641665 10.209624 5.020714
1 2.565237 10.960722 2.954586
2 2.493867 12.888176 4.715722
1 3.127209 0.530618 7.578597
1 3.589583 1.547688 9.239005
2 2.939479 0.476267 10.733108
1 4.704520 0.289050 10.087555
2 4.076877 -0.506923 11.413619
2 3.060818 1.375142 -0.933120
2 2.482915 -0.609339 0.766514
1 2.216293 0.477978 3.192482
1 2.877854 0.765912 3.754484
2 2.558802 0.852763 6.556716
2 4.542586 4.714783 5.882126
2 4.019015 3.141837 6.943476
1 2.916648 3.586141 9.788284
1 3.456390 2.815535 10.736451
2 2.578390 4.467738 12.207761
1 2.103771 0.912808 0.869849
1 3.815903 0.534933 2.395621
1 3.529452 1.989692 4.395356
2 1.605918 2.118662 3.438803
2 3.542340 0.544025 5.806231
1 4.975088 4.185095 7.321228
1 2.809158 4.880539 7.920243
1 4.178093 3.724405 9.442777
2 2.717402 2.635212 11.495358
1 4.215300 2.499667 11.380185
1 3.531633 4.197782 0.322078
2 3.159870 2.935411 0.971958
1 1.652572 3.316020 1.925047
1 4.692242 3.891478 2.459004
1 3.083272 3.996610 6.770256
2 3.756563 5.819310 5.816147
1 3.449422 5.395265 8.799369
2 3.509199 4.591152 9.480063
1 2.197124 5.400126 10.539864
2 4.357400 3.463781 13.080086
1 3.203985 5.183984 0.167677
1 3.246442 4.062733 1.449197
2 2.597744 4.721050 0.790121
1 4.028741 4.457429 4.529011
2 3.184621 4.852559 5.766257
1 3.355990 5.796588 6.902388
2 5.098597 4.999282 9.342627
2 2.145394 4.636736 9.430423
1 3.812451 4.709799 10.799761
2 2.528472 6.821569 12.675453
1 3.509458 6.296564 0.045270
1 4.004920 6.549476 1.733013
1 3.600712 5.375577 2.987478
1 2.151888 5.913821 4.696627
1 2.392360 5.251421 6.333875
1 2.586546 7.120972 5.078913
1 3.608148 7.722797 7.227984
2 4.830729 7.258404 8.773566
2 4.759656 5.462074 10.454418
1 4.418505 7.267251 11.093839
1 4.769055 5.721020 1.485666
1 5.337663 8.061924 2.263127
1 4.771908 7.114193 2.688923
2 4.618518 6.417992 6.383785
2 3.426007 6.816033 6.557765
1 4.768329 9.395289 5.578969
1 2.543820 7.661524 8.362352
2 4.801767 8.528021 9.419903
1 4.709058 8.566852 10.821004
2 4.267152 7.479841 12.114517
1 3.981494 8.076965 0.902395
1 4.980340 8.586257 1.511373
1 3.271001 8.963831 4.287520
2 4.841706 7.594833 4.119604
1 5.399625 8.404087 6.479106
1 2.798054 7.459801 6.055007
1 3.431294 10.266439 8.028182
2 4.472551 10.572164 7.301940
1 3.373686 9.169937 11.252996
2 4.338758 9.602181 11.314760
1 4.428602 8.854678 0.358964
2 3.813632 8.915299 1.670421
2 4.750201 9.237006 2.469553
2 5.990912 10.837594 3.471078
1 5.325933 8.515751 4.893690
1 4.476521 10.389373 5.991201
1 3.929363 11.941554 7.039836
2 4.496643 9.937852 10.036385
1 4.160649 11.059289 10.826223
2 4.439863 9.951599 12.358980
2 4.776399 9.654824 0.950396
2 4.237197 11.708726 2.583778
2 4.641152 10.377454 4.012598
1 4.907507 11.006751 2.919595
1 4.219662 9.532884 4.595221
1 3.263472 10.534112 5.948941
1 3.411834 12.125778 8.011480
2 1.711283 11.827592 10.031310
2 5.111252 12.237184 11.040732
2 4.114446 13.131199 11.066061
1 5.087288 11.627626 1.677318
1 3.732344 12.489949 0.776708
2 4.487868 12.656933 1.527117
2 3.162239 12.028536 3.929625
1 4.124822 11.206923 5.382403
1 4.543183 0.544058 6.584026
2 5.320468 0.357046 9.047314
1 5.000633 -1.163425 7.619356
2 3.812159 1.709412 10.534610
2 5.966475 1.085731 11.067482
1 5.081903 1.272301 0.055021
1 5.361598 1.855811 3.592991
1 4.576143 1.146705 2.223022
2 4.354492 1.547985 4.911968
1 4.686706 0.187080 4.584038
2 4.726089 2.577397 7.675515
2 5.560133 1.743824 7.205073
2 4.211721 0.601282 8.069418
2 4.641790 2.576940 9.852709
1 4.689932 1.453839 11.582268
2 5.890956 0.150765 0.600395
1 3.594379 0.946524 1.177093
2 4.027338 2.598693 2.935103
1 2.438128 1.740959 4.034634
2 4.244363 1.879403 6.820339
1 3.678072 2.711971 5.433298
1 4.626596 2.040128 8.932988
2 3.246450 2.503721 9.669832
2 5.716377 2.108989 12.603590
1 3.553146 2.232365 12.615837
1 4.270738 2.227986 1.636774
2 3.837052 3.745686 3.133627
1 5.640123 3.385789 3.028954
1 5.727608 2.823462 4.053378
2 2.242344 2.867898 4.633995
2 3.825456 4.408100 8.395610
1 4.772877 3.265303 8.565194
1 4.784653 3.652827 10.848199
2 2.891738 3.678067 10.985017
1 5.510129 4.188356 12.185889
2 3.852672 3.326905 1.802301
1 4.227831 4.404815 1.181180
1 2.838013 4.423564 2.934818
1 3.509305 5.378969 4.765304
1 3.906661 3.901478 5.897640
2 3.961580 6.601426 7.528285
1 4.089902 6.193274 8.685499
2 3.927511 5.514714 7.802057
1 4.427591 6.368468 11.952115
2 4.383700 6.742794 13.151030
1 3.654819 5.826992 1.064965
1 3.212745 5.118300 2.033893
2 4.625582 5.715591 2.477319
1 4.327192 6.660354 3.568387
1 4.844213 5.192818 4.881981
1 6.786045 7.597863 6.713505
1 6.014098 7.579944 7.458346
2 6.180607 5.836042 8.822224
1 5.415892 6.213872 10.822918
1 5.214828 7.915331 13.176228
1 5.445641 7.055084 -0.203540
1 7.465878 6.305589 2.158053
2 4.436926 6.287103 4.660677
2 3.929968 7.116608 5.572490
2 5.513988 6.190038 5.621435
2 5.722146 8.605855 3.750599
2 4.989916 7.983794 7.832023
2 5.371500 7.768193 11.633769
1 4.215285 7.751995 9.949708
1 4.272414 8.726318 11.827527
1 6.276392 6.992495 2.204618
2 5.694913 7.620036 3.329859
2 6.667307 9.582623 3.935436
1 6.182921 7.727772 4.667475
2 6.984682 8.283965 5.423737
2 3.925605 8.742203 6.297983
2 4.927881 9.210092 6.979346
2 5.021769 9.618437 9.126001
1 5.367786 9.553436 10.714869
2 5.535442 10.305148 12.615740
1 6.601926 7.552888 1.049415
1 7.142523 10.137724 0.831373
2 6.104166 11.645161 2.582962
2 5.532828 10.528478 7.019654
2 5.750654 9.111210 5.756810
2 5.667384 11.646915 6.787601
1 6.771600 10.969078 9.477686
2 6.643979 9.787001 9.545848
2 5.144605 10.330872 11.392221
1 2.782309 12.639517 11.802265
1 5.450671 11.611443 0.463757
1 4.604477 10.416156 1.912593
2 6.458284 11.583596 4.486246
2 7.590122 9.898167 4.783843
1 5.709894 10.250394 5.977315
1 4.982707 12.365664 7.238409
1 4.070496 13.133712 9.143280
2 4.502162 11.668636 9.788559
1 6.534920 9.905289 11.483636
1 5.655614 11.631377 10.226817
1 5.195236 11.895704 -0.528060
2 6.245222 12.234640 1.516801
2 5.293902 12.855625 2.604169
2 4.745924 11.651871 4.559322
2 5.316593 12.485151 6.289278
1 6.998399 0.191031 6.298120
2 6.174605 -1.414960 7.936160
2 7.428435 0.619920 9.488214
1 4.908405 1.578254 10.506215
2 4.426588 0.152383 12.135528
2 5.666670 0.406033 -0.515858
1 7.106046 -0.064031 0.957298
1 5.958092 0.442523 3.974632
1 3.963141 0.278171 3.576133
2 4.279637 -0.358757 5.780762
2 4.829056 1.500470 5.909407
2 5.900651 0.891633 6.377876
1 5.709098 2.729458 9.303379
1 5.733086 2.273500 11.267559
2 6.272213 1.327632 12.114149
1 5.088780 2.026400 1.046273
2 5.370428 1.830459 2.199204
2 6.156806 1.891862 4.510236
1 5.185925 2.349819 4.899858
2 5.590367 2.738474 6.620086
1 4.721458 2.772607 5.912706
1 5.806392 2.777984 7.979910
1 5.214848 3.719306 9.541367
2 5.865614 3.979538 10.760425
2 6.729209 4.083650 11.605053
1 5.867663 3.904315 1.100578
2 6.185054 2.893603 1.098411
1 4.819402 1.045209 3.860042
2 5.771007 4.845109 4.440856
1 4.605013 3.511856 4.799738
1 6.252244 5.658840 6.657818
1 5.790865 4.666472 6.894321
1 5.964497 7.017765 10.304579
2 7.600505 3.729195 11.091161
1 5.514282 5.026164 11.551773
2 5.471086 4.810070 0.546604
2 5.025523 3.166476 1.553545
1 4.974101 4.752432 1.978185
1 6.641329 4.276806 4.734868
1 5.173852 3.977974 6.243323
2 6.239100 5.689922 7.686788
1 4.896930 5.500151 6.494370
1 7.215034 5.816820 9.347188
1 5.138308 7.405344 6.844999
2 4.342406 5.251712 12.950239
2 4.461436 4.774880 -0.636449
1 6.063687 5.932058 1.661015
1 4.866615 7.185931 1.332449
1 5.634020 6.247586 2.790782
1 5.785678 5.115928 5.825954
