1000
Lattice="17.099759466766965 0.0 0.0 0.0 17.099759466766965 0.0 0.0 0.0 17.099759466766965" Properties=:species:S:1:pos:R:3 Time=1000
2 10.786852 7.695506 11.592385
2 7.728770 9.488187 9.096525
1 9.242482 9.480441 12.951412
2 7.428952 8.504911 17.585394
2 8.962962 7.266614 16.669246
2 9.240783 8.766060 -0.434856
1 8.406915 7.816641 2.027662
2 9.691665 9.749459 5.568560
2 10.253825 9.270192 6.572598
1 8.847996 8.227489 7.317556
2 8.922651 13.291962 10.187708
2 8.869255 12.198875 10.923447
1 8.289033 10.953198 12.126241
2 10.024047 11.843870 13.062350
2 9.021382 10.087952 16.287662
1 9.908728 10.672678 -1.306505
2 9.325134 11.376195 4.172050
2 6.467271 12.586644 4.349368
1 10.146542 10.769246 5.930980
1 8.578285 11.188050 6.370864
2 5.158194 12.158332 10.110682
1 9.561390 12.429127 11.891867
1 8.183678 11.471174 13.323449
1 9.518562 12.676043 14.041684
1 9.093410 11.082756 15.218610
2 8.138518 14.530334 -1.824756
1 11.079967 11.893541 3.426094
2 10.555603 12.749308 4.313515
1 9.821234 14.626338 5.194870
1 10.323897 14.131181 8.740188
2 9.587070 15.122422 8.547727
2 9.690019 14.415184 9.885265
1 9.313916 12.917701 13.000480
1 8.134345 15.378453 14.348279
1 11.327281 14.440141 17.453795
1 7.018279 15.474975 0.217964
2 8.878281 15.121863 3.317896
1 10.482545 13.864966 5.994523
2 7.978378 13.624107 6.892015
2 9.071485 12.730207 5.280482
2 10.814327 17.799208 9.428374
1 8.062423 15.868679 12.722952
2 10.747178 18.073390 10.865741
2 8.054495 18.966095 15.892930
1 7.745126 15.609699 16.476502
2 8.377761 14.806224 0.209213
1 9.402696 16.698514 -0.108670
2 10.291166 15.302112 4.498389
2 9.292500 16.189917 6.620532
2 9.564412 15.423764 7.444269
2 8.579797 2.584310 7.801202
2 9.390752 0.211475 13.189565
2 10.444869 0.846479 12.116278
1 8.509477 0.321513 12.377369
2 10.313937 1.459513 15.967627
2 9.799138 -1.056983 -1.150716
2 9.809683 -0.120459 4.369795
2 9.512000 -1.221244 2.084713
1 9.550273 1.796326 8.939618
1 7.771739 0.058349 8.349373
2 11.764002 2.952267 9.039740
1 8.420061 4.029309 11.349238
2 8.738938 3.587152 12.451557
2 9.002750 3.924791 15.417136
1 7.514277 -0.101688 15.718441
2 10.880105 2.509629 -0.854895
2 9.860042 3.353114 2.842536
1 6.924727 3.348489 3.798106
2 11.017458 1.164546 5.315769
2 9.635105 2.251213 7.636170
1 10.418502 5.714137 10.051733
2 6.716655 4.810047 13.127526
1 8.858656 5.731636 13.136645
2 7.363076 4.475823 16.480329
2 11.046831 3.542438 17.014861
1 10.121224 4.517080 0.979583
1 9.989386 8.064876 1.994590
1 10.448605 4.428924 4.488888
1 9.408427 3.043189 5.665808
1 10.635720 5.321675 8.577150
1 9.050962 4.897612 9.880293
2 7.694177 4.185716 12.933800
2 8.087515 5.918665 12.244583
2 7.939146 6.066981 14.397028
2 9.321086 5.867169 14.942070
1 9.422851 7.235855 0.644782
1 9.666634 5.057329 3.177952
1 9.053484 4.651974 4.180621
1 8.966869 6.022459 6.245595
1 10.313616 6.257186 6.089342
1 10.055065 5.685824 11.105555
2 11.031694 7.906350 10.377878
2 10.747136 7.841407 13.266590
1 8.868054 8.215193 13.586271
2 10.213391 7.080547 16.613888
1 10.452187 8.467423 -1.936444
1 11.341545 7.456322 -0.115928
1 9.354889 7.242891 4.958336
1 8.950766 8.362863 5.848078
2 10.562527 8.262528 7.370498
2 10.117173 9.380048 8.255131
1 9.572726 9.948019 12.018519
2 10.701761 10.362422 12.604024
2 10.643535 10.963196 14.564321
1 12.231352 7.685543 16.379504
2 10.202745 9.054851 0.392974
1 10.367860 8.888741 1.458433
2 9.405265 9.014494 3.877147
2 12.006261 7.237294 6.317089
1 9.629579 9.037374 9.092516
1 12.384724 11.236199 8.313218
1 12.227131 12.354962 11.523409
1 9.781082 9.271822 13.974150
1 14.649480 10.041224 14.479604
2 13.187319 9.548445 14.219771
2 12.349985 8.001151 1.478854
1 9.855961 7.987867 3.635771
2 9.427848 9.503849 2.397793
2 13.374866 11.784142 6.145519
2 10.557985 12.560507 8.776516
1 12.660801 12.550438 8.697699
1 10.884034 11.631816 12.399024
1 11.009790 11.642320 13.471952
1 11.946539 13.463712 14.040835
2 13.357849 12.658250 16.938429
2 11.582591 13.020840 0.957600
2 11.882879 14.583124 2.822233
1 12.434204 12.351023 5.750184
1 10.112450 12.237593 7.814720
1 11.061512 12.989662 7.599865
1 12.607479 13.812687 8.498029
2 11.405518 13.437846 9.027025
2 11.421363 12.870625 11.822137
2 12.991585 15.717554 14.199602
2 10.871555 15.460719 16.450150
2 12.250483 16.400525 1.936779
2 10.990400 15.566737 1.853309
1 11.438764 15.256049 3.794718
2 11.451182 12.095607 6.303321
2 12.275795 15.392797 9.011546
2 12.899664 15.562729 9.924558
1 11.291847 17.111176 12.154362
2 9.165365 16.700350 10.785319
2 9.543034 17.466410 15.006575
1 12.038570 14.774416 15.917373
2 11.264277 16.968117 1.357173
2 12.363933 15.635262 3.121021
2 11.788666 16.331140 4.344035
1 10.685198 15.612383 6.928265
2 11.314521 17.992590 6.923498
2 12.018604 0.598616 9.537257
1 11.444748 1.564681 11.342814
2 11.924264 1.951597 12.355369
2 12.450217 1.421962 13.566883
2 11.196862 0.919835 15.464706
1 10.993382 0.901798 2.138310
2 10.798180 -1.059954 3.162492
2 11.601804 2.630730 2.706171
1 11.375488 -0.775070 6.623205
2 9.696603 -0.024213 7.064393
2 11.237376 3.658782 7.307558
1 9.853374 1.937587 12.059735
2 10.619465 3.678909 11.948824
1 11.303433 2.297543 14.453811
2 11.670627 2.402290 15.518672
1 11.678972 5.648515 0.054464
1 10.205694 2.567148 3.444690
1 12.710049 3.194938 4.317117
1 12.875755 0.852533 7.003730
2 12.188393 1.823446 7.359259
1 11.525207 3.802351 8.332391
1 11.771219 4.225565 9.231374
2 11.028887 3.124032 11.128609
2 10.165610 3.520612 15.762719
2 9.521162 4.051315 16.369941
1 10.342831 4.858645 -0.214715
1 12.635198 5.738068 2.375959
2 11.185974 3.666072 5.586968
1 12.956052 6.002098 3.892545
1 10.476814 7.113241 6.828603
1 9.808082 4.072939 11.328431
1 9.637029 4.890600 12.706158
1 11.215214 5.781922 15.630770
2 10.157792 5.946309 13.840581
2 11.076765 5.405806 13.777936
2 11.539747 6.817107 -0.914770
1 10.736857 7.714057 5.372241
2 10.060232 6.368691 3.011524
1 11.098099 5.471379 4.942388
2 13.125536 4.344096 7.007079
2 12.390660 5.624737 7.615479
1 12.085405 7.382130 11.920385
2 11.560028 8.641208 12.906065
2 11.297455 8.138933 14.142329
2 11.918503 8.427386 17.727036
2 8.805459 9.173588 1.490327
1 10.820384 7.564887 2.365017
1 11.445211 7.019674 4.918787
1 10.812145 8.775338 5.711042
2 9.766857 10.526385 8.028090
1 12.155456 8.513321 8.288332
1 10.815335 10.062685 11.530835
2 12.285814 10.261510 12.457262
2 11.650430 9.376053 15.374900
1 10.791992 10.344991 13.680728
1 15.902194 10.644410 1.516887
1 13.682690 8.009772 4.452930
2 14.507934 8.609150 0.385214
1 13.548524 10.443869 8.303591
1 13.748887 9.699354 7.088337
2 14.094947 10.927765 9.216230
1 12.921390 11.572006 11.740847
1 9.874580 11.019927 12.433866
1 11.797747 11.263346 12.884048
1 13.556215 9.967133 15.810331
1 12.599620 12.601585 1.157456
2 12.513186 12.837059 4.199585
1 10.839344 14.753092 3.190244
2 12.331907 11.525557 6.903322
2 10.846186 10.737543 8.236712
2 13.364365 14.193667 14.074279
1 11.664935 12.785520 12.891334
1 13.372063 13.099020 13.312947
1 14.654264 12.074933 14.350693
1 14.588016 12.804816 17.664162
2 11.788442 13.850763 1.915082
1 15.033346 12.127040 2.323866
1 13.225668 13.056773 5.275203
1 10.669417 11.355264 6.487093
1 14.275694 13.619060 4.974153
2 13.242769 14.382985 10.640063
1 15.327734 16.563588 11.250942
1 14.145853 13.995794 13.079416
1 13.148127 16.179134 15.064669
1 12.686977 14.684378 14.897858
2 13.134938 14.307877 -0.523587
2 12.654408 15.175001 2.070090
1 12.068149 13.768566 3.542872
1 12.665530 15.036630 5.262292
1 15.096408 15.450851 6.561250
2 13.002822 17.050741 9.665083
1 12.606166 18.619943 11.567056
1 12.824418 17.612428 14.209313
1 14.050811 17.085655 14.101073
1 10.769986 17.020299 15.555321
2 11.997986 14.943970 0.981843
2 12.522267 15.277117 4.200909
2 13.550681 15.660636 3.733002
2 13.919769 17.422354 4.709919
1 15.720281 16.599486 9.271810
1 13.688994 1.068771 8.538229
1 13.176764 2.643116 10.904732
2 13.387131 1.532559 12.931244
2 12.836692 1.042660 15.272392
1 12.792335 -1.048650 17.620851
1 12.563971 3.155090 2.593692
1 12.072910 1.328081 4.017558
2 13.266958 1.457035 5.669709
2 13.217722 0.199494 7.790008
2 13.808447 1.399491 7.340289
1 11.453096 3.627297 10.287313
2 10.346557 3.203389 8.778651
2 12.310232 2.594331 13.453406
1 12.063269 1.238828 16.315630
1 11.551719 3.676653 15.924031
1 12.982479 2.526261 -0.574330
2 13.335563 2.771694 3.143978
1 15.874000 1.752909 3.661665
1 13.151226 2.815351 5.703379
2 13.407612 2.835951 8.029835
2 14.026213 3.511622 9.582716
1 12.543194 3.658723 11.073337
1 12.556413 4.476938 14.241788
2 13.599476 7.320095 13.432768
1 11.267661 4.625402 14.798465
2 11.865396 4.487869 0.882455
1 13.423902 5.158436 1.374104
1 13.948673 3.726689 5.706711
1 11.639556 4.641716 5.387106
2 12.624173 3.849001 8.195908
1 13.212120 5.433931 8.373204
1 13.871368 6.691881 11.667451
1 13.194866 5.160015 12.098438
1 14.700637 6.661796 13.358482
1 11.724619 7.660118 15.316243
1 12.304696 7.413352 0.425373
2 10.932025 6.368771 3.483575
1 13.144262 5.047561 4.309493
2 12.041996 5.957164 5.790483
2 12.093819 4.377027 7.355163
1 12.912821 7.972019 9.990684
2 12.067534 9.230542 11.330509
2 12.709214 8.423562 12.956664
2 12.132621 7.545878 13.226914
2 10.813044 7.564158 15.682040
2 13.206173 8.876571 1.392677
1 14.733357 7.660910 4.007247
2 12.398038 7.157059 4.347065
1 15.312273 6.200101 6.025650
1 11.392618 7.540712 7.133825
1 15.161832 8.834026 9.120447
1 14.015307 10.602768 13.473050
1 14.285267 8.985306 14.086078
2 15.669497 12.285600 13.886129
2 13.792420 8.354300 16.057618
2 15.795343 6.555343 2.078440
1 12.583254 10.332798 1.936631
1 13.003251 10.141288 4.452916
1 14.763817 8.215209 5.042365
1 16.902016 8.526192 7.111458
2 13.201822 13.128764 9.703133
1 13.959058 7.653822 7.055507
2 13.357720 10.481151 12.266986
1 14.178932 9.337599 15.242815
1 17.125535 12.067276 15.222596
2 15.828509 12.037747 1.725625
1 15.072695 10.951915 1.992292
2 14.788313 8.823755 3.683890
2 15.322301 10.354858 4.579726
1 16.611943 10.292810 8.319188
2 16.982550 13.568433 12.276436
1 13.462209 11.911218 10.547788
2 14.987980 11.273030 11.925958
1 14.128222 13.852531 15.270767
1 14.265002 13.739845 16.648651
1 15.510741 14.012479 0.708672
2 16.014838 12.633582 2.930568
1 14.716387 12.782287 3.253836
2 11.337921 10.458193 3.220110
1 13.358026 14.881840 8.805302
2 14.505597 16.180218 8.589337
2 17.776923 13.882047 9.452340
2 15.043664 16.481793 13.893782
1 15.032420 14.142121 15.689224
2 9.982326 15.563431 17.052079
1 14.535831 14.251314 0.913709
1 13.679487 13.491193 2.360781
1 14.273108 13.816680 3.359127
1 16.649988 14.940724 6.865035
2 15.568749 15.387030 9.059038
2 15.847726 14.120445 8.664431
2 14.186884 19.129162 11.259175
1 13.843644 15.384906 14.949188
2 14.123912 16.159355 12.793057
1 14.365291 14.796895 16.134959
1 13.199923 15.275712 1.088267
2 13.435092 16.146379 2.699308
1 13.901246 18.596836 4.341967
2 14.213777 15.264515 5.519807
2 15.754265 16.394515 8.228329
1 14.703688 3.088846 6.705821
2 13.309248 4.548857 9.601183
2 16.609019 1.059620 12.218365
2 13.884066 0.614617 11.357844
2 17.188003 -1.567646 16.409045
2 16.927245 0.026340 0.968264
2 14.150517 0.326100 3.739179
2 12.447119 0.854747 2.854833
1 14.836470 3.049723 5.712066
2 10.344083 0.913065 8.123566
2 14.251911 4.268823 10.497853
1 14.348423 2.762819 8.860772
1 14.784421 2.123483 12.890742
2 12.908450 2.245902 15.501029
1 13.269166 1.613964 14.343070
1 16.085069 -0.334487 -0.179485
1 14.663068 1.942700 3.672610
1 15.776235 2.073954 4.617035
1 17.389243 3.788043 5.719862
1 14.952828 1.492163 8.337832
2 15.428158 2.689842 9.327242
1 13.229288 2.673725 12.544381
1 13.594213 2.872788 13.996437
2 14.271876 3.303518 12.968202
1 16.041818 2.010802 17.107863
1 16.466838 4.480305 0.352150
1 13.937739 3.239995 4.085137
1 13.054405 4.778033 3.237767
2 14.232888 4.137607 6.997958
2 14.319165 4.090296 8.082797
1 15.540500 8.177883 8.573523
1 14.665952 6.158483 9.292070
1 15.665306 5.216030 12.232529
2 14.451634 7.296343 14.183689
2 12.920699 7.322192 14.859211
1 14.849016 6.514766 -0.724887
1 14.087230 4.637543 3.497495
1 15.482921 5.429383 4.291786
1 13.221811 6.471725 7.201156
2 13.727852 5.097840 7.426508
2 15.823049 8.086551 9.624104
1 16.344615 8.729107 10.492827
1 16.523001 7.019075 13.459818
2 14.728121 7.120888 15.351168
2 17.582594 9.803968 19.075163
2 13.174420 7.000263 3.386181
1 16.203060 7.268808 3.997945
1 13.966029 7.303595 5.222481
1 13.764539 6.187369 8.013488
2 14.783325 7.298441 6.035876
2 16.048542 9.522658 9.669542
2 14.387785 9.558371 11.233873
2 17.986647 8.758688 13.190828
1 14.356487 8.169357 14.947866
2 16.978939 8.825279 18.194043
1 13.347645 9.731253 2.340066
2 16.260815 9.917691 2.119856
2 17.509393 7.425992 3.997443
2 15.117803 10.401510 6.032029
2 15.982628 9.058525 7.934293
1 16.920539 9.222740 8.638491
2 16.242701 10.730310 10.843377
2 17.631980 11.128815 13.665561
1 17.476857 8.016370 15.987650
2 12.812148 13.920597 18.343253
1 16.036711 9.464897 1.105884
2 15.572569 11.367543 3.209452
1 15.998308 8.619275 3.768404
1 17.558261 9.383512 5.900194
1 15.500821 11.463704 7.917212
1 16.620809 12.212018 8.438989
1 18.222106 12.645119 11.362047
1 16.420355 13.170509 13.912848
1 13.240270 13.300714 15.685195
2 15.315398 13.249419 14.948145
1 17.517854 12.930416 4.123714
2 17.510956 16.634872 2.773409
1 15.094109 12.374054 5.628302
1 16.936159 13.224526 5.544297
2 16.697807 12.990101 7.143948
2 17.552147 15.712156 8.767678
2 16.833121 14.371607 10.640097
2 15.601353 12.114682 11.297961
2 14.857103 15.043826 14.682239
2 15.175956 14.965684 16.994397
2 16.180063 16.217378 -1.432162
1 16.758050 13.647537 3.414059
1 16.285297 16.156778 5.089288
2 16.118060 15.232685 7.890518
1 18.320793 13.439265 7.882433
2 16.963556 16.083359 9.673906
2 16.524754 17.304764 11.320321
1 14.836476 17.487828 13.540405
2 15.880246 16.980084 14.518167
1 16.494220 15.090815 15.885443
2 12.636576 18.483812 0.269205
2 16.808774 18.943886 1.942059
1 17.990327 16.523976 5.622792
2 15.780724 18.163011 7.674868
1 15.250444 16.518427 7.186162
1 15.810744 1.665693 11.718897
1 15.843359 2.295280 10.205545
2 15.505740 0.512334 12.669275
2 16.366587 0.746539 13.357055
1 15.401854 0.983274 16.983747
1 18.162864 1.726121 1.974395
1 16.413394 0.791627 1.537701
1 14.503731 1.161018 5.204712
1 16.526500 1.844301 7.389623
2 14.445081 -0.681694 6.219711
1 16.161948 3.542044 8.219352
1 16.942537 2.690597 8.804229
2 16.054339 2.020315 13.150099
1 17.812807 3.290877 14.101511
1 16.941605 2.790151 16.915917
2 15.496578 1.080357 -2.718417
1 16.124427 3.407270 3.418621
1 14.203760 4.269785 4.687901
2 14.697928 5.328716 6.616921
2 17.772255 5.014908 8.284790
1 15.607160 5.053471 9.155773
1 15.813441 4.542069 11.049531
1 19.308257 4.886790 12.430583
2 16.552611 4.197766 14.371932
1 18.125569 3.955673 13.196408
2 16.749252 5.028655 2.201192
2 14.516577 5.746892 3.305368
1 15.136003 4.663678 5.202992
1 18.112751 7.018449 6.004438
1 15.286199 4.866412 7.684898
2 15.148884 4.356142 9.787973
2 17.131677 6.178691 12.762335
1 16.293604 2.781409 15.116447
1 13.750692 6.351339 13.669235
2 17.172991 5.535411 16.395456
1 17.204977 6.431088 0.580100
1 15.863544 6.322694 4.276143
1 16.959415 8.217439 4.534762
2 15.894395 6.972884 5.415363
2 16.736398 8.121116 8.309766
2 16.741210 9.986294 7.058770
1 16.327356 7.607865 11.138324
2 15.664515 9.596558 12.040871
1 15.333537 8.496741 14.498419
2 16.116223 8.945593 15.903449
1 16.386681 5.404185 1.197080
2 17.787878 7.631124 1.927217
1 16.892863 8.068585 2.523796
1 17.666050 6.001629 6.796982
2 15.492145 6.841267 7.381031
1 0.616923 9.685700 10.989525
2 0.062720 9.257664 9.996139
1 2.066810 9.514066 13.264576
2 -0.292186 9.305918 13.247670
2 0.356344 9.753738 14.278301
2 -0.033550 10.693237 1.030840
1 0.356608 10.380553 2.909881
1 1.352880 6.983453 2.907818
1 -0.594194 10.464292 5.822587
1 0.109148 11.366073 7.862951
2 1.250118 11.252022 9.722048
2 3.445303 11.658688 11.420156
2 1.068609 9.873102 13.327536
2 -0.446847 11.349910 14.414919
2 3.019165 8.619202 14.699747
2 1.368802 10.262176 0.419262
2 -0.989687 9.693150 3.355410
1 2.281259 12.525366 3.518713
1 -1.513900 11.449172 4.950504
2 -0.848877 11.499492 7.038506
2 0.061311 11.187208 9.237045
1 2.131969 12.679295 10.420567
1 0.801336 13.913207 13.253276
2 1.337632 11.842019 14.458327
1 0.369886 13.907439 17.198277
1 1.459754 13.367580 0.386813
2 0.985765 11.260611 2.886385
2 2.585512 14.211356 0.763010
1 0.497379 14.152926 7.238258
2 0.059349 13.405241 8.413679
2 1.034447 15.316729 11.609392
2 0.402888 15.042880 9.897411
1 -0.713562 13.032252 11.054756
1 1.614712 14.734678 12.925092
1 1.814131 15.682330 17.553974
1 -1.303002 14.451229 -2.147948
1 0.899587 16.013864 3.794695
1 0.658625 14.261167 5.385051
2 3.592644 14.584903 3.984621
2 1.032463 15.495735 6.457061
2 0.699934 17.671561 9.191555
1 1.794992 16.402715 12.451502
2 0.429257 15.992920 13.574350
2 -1.592407 15.871670 14.765028
1 0.918892 18.352786 17.436287
2 0.761074 15.856920 1.824518
2 1.174502 18.968451 4.567144
2 0.812210 17.818862 4.361673
2 -0.878802 16.172307 7.101364
2 1.785422 14.736312 8.529223
1 1.431908 1.217093 8.091581
2 -0.871417 -0.323910 12.964727
1 -0.149745 0.987610 14.326048
2 2.396975 2.239484 16.232387
2 2.252189 1.350441 18.414483
2 0.463811 0.784095 2.278896
1 1.032770 -0.005706 1.203986
1 -0.408347 1.845637 2.951284
2 3.008641 -0.167988 4.741619
1 0.158005 -1.198954 7.053214
2 2.301483 2.307459 10.487847
1 0.536599 3.843686 10.965513
2 -0.219986 1.932351 9.926683
2 1.531458 2.030740 13.637897
1 0.626598 2.011223 16.040334
1 2.416180 1.711668 2.447023
1 0.465771 2.592622 2.286925
2 1.046245 1.519656 3.072136
1 -0.507824 2.893513 6.506408
2 0.667099 2.838239 6.975379
2 1.772857 4.659269 10.298874
1 0.277885 3.035884 9.726134
1 0.052658 4.881197 13.275610
2 0.714746 1.946775 12.388009
1 1.712791 3.844565 16.672960
2 1.418540 7.180668 1.052398
2 0.490981 4.678635 0.381552
1 0.673190 4.091575 1.539538
2 1.413114 5.394776 5.870956
1 3.110002 7.135238 5.229822
2 1.606271 7.876809 10.573238
1 -1.552357 7.172076 12.360854
1 0.505680 7.308227 11.550626
2 1.792816 4.366105 15.568442
2 0.370804 7.878686 17.704463
1 2.101800 8.668338 0.501487
1 2.784854 3.224200 1.684732
1 -0.301784 5.232457 4.501368
1 0.374618 5.381769 5.432803
2 2.879429 6.359764 8.951494
2 1.711711 7.074938 9.228787
2 0.545311 8.081297 10.855265
1 -0.323217 10.877231 11.840426
2 -1.445954 8.034916 13.464725
2 -0.614933 6.140732 14.936729
1 -0.794855 7.960279 1.569497
1 1.341882 9.497147 2.794064
2 -0.217419 6.488379 4.310739
1 1.831040 6.486280 5.677206
1 -1.067756 8.967329 6.271102
1 0.370971 10.445453 10.426115
1 2.688374 10.174718 10.910790
1 2.297347 9.064365 11.922232
2 3.138124 8.885067 13.612088
2 3.421054 10.384260 14.606234
2 1.859071 9.565644 -0.583647
2 1.100949 8.485649 2.853504
1 3.838474 11.187133 4.577482
2 2.056618 9.980683 8.463789
2 1.729444 6.564899 7.381377
2 1.577211 11.994277 8.194927
1 1.343747 10.775147 11.705783
1 3.513209 9.481648 12.723953
1 4.245532 13.963403 14.119255
2 1.689114 10.878524 13.038145
2 2.184334 10.244362 3.205506
2 3.664832 9.913990 2.842158
2 3.218060 9.524658 5.174935
2 2.074786 11.395567 4.249072
1 1.695744 11.190521 6.879526
1 3.162132 12.762766 12.330983
2 3.714215 14.432247 11.997066
2 2.034943 13.558760 13.687759
1 2.308709 11.573618 15.527815
1 3.077860 13.303777 18.868889
1 2.529829 10.982857 0.076023
2 3.954069 12.106207 2.899119
2 3.486407 11.852570 6.418060
2 6.497101 14.439250 5.958787
1 1.049875 12.412433 9.298472
1 2.190604 13.801492 9.127542
1 1.918842 14.056093 11.246931
1 1.493402 13.557287 12.291446
2 2.129280 12.896174 15.161584
1 3.513005 14.884486 17.626440
2 1.558986 14.580326 1.358260
1 2.687728 15.340660 1.941657
2 3.979882 16.101106 3.361087
2 4.017954 13.219372 3.631192
2 1.519867 14.324388 6.707208
1 2.169968 16.628345 11.292184
2 1.515086 16.472114 8.681735
2 -0.075227 18.909109 11.569941
1 2.858616 16.638230 12.963433
2 4.001255 14.515014 16.747244
1 0.260773 17.228902 -1.476772
1 1.796168 15.485337 3.468678
1 1.775979 13.493578 3.737519
2 1.312311 18.686077 6.201710
1 4.196626 16.156578 4.641912
1 2.016597 0.280766 8.543775
2 3.676117 1.700400 11.585996
1 1.689048 1.227318 14.603533
2 0.497061 0.311386 13.571220
2 1.747048 -0.856405 13.498777
1 0.468611 3.767128 -0.202112
1 2.183091 -0.009282 2.003123
2 1.701030 -0.809362 4.578859
1 2.394373 2.132799 3.350087
2 3.035137 0.817569 9.480673
2 2.304194 1.832887 6.901338
2 1.858927 2.490182 12.115339
2 6.236691 2.994309 13.056107
1 3.825177 3.577314 14.561218
2 3.488767 4.838927 15.474172
1 3.584054 2.255572 1.318077
2 2.819041 0.791983 2.834002
2 4.541771 5.485085 4.075330
1 2.210395 2.032905 4.850126
1 3.275258 5.214973 8.468384
1 2.984553 0.418387 7.459185
1 2.513198 4.491976 11.263576
2 3.313803 4.666719 11.868775
2 2.267126 3.657670 14.201659
2 3.454340 4.062481 17.031830
2 5.050403 4.355560 -1.194899
2 4.671185 2.946734 3.726183
2 3.555104 2.303985 2.907541
1 4.073691 3.066432 6.957781
1 2.912893 3.763948 6.690478
1 2.948942 5.877386 7.857797
1 1.887845 7.153262 11.718455
2 0.818754 4.273634 12.157761
2 1.264943 5.868240 12.536235
1 1.252093 7.681504 16.763631
2 3.237730 5.702369 0.120253
2 1.658459 6.428105 0.214840
2 2.726721 4.769780 4.209451
2 1.938977 5.502982 7.328471
1 3.628155 4.471433 7.541909
1 1.403022 8.973030 9.088177
2 3.435523 7.332054 11.023962
2 2.974677 7.976233 11.857320
1 3.259698 6.618318 11.798053
1 1.665526 9.186773 18.951233
2 3.301892 8.709548 0.710588
2 4.155063 8.575634 1.386830
1 1.741514 7.809454 4.319956
1 1.609093 8.947075 3.791257
2 0.621931 7.950764 9.751795
1 5.504035 8.507146 10.024733
1 1.409901 8.955291 10.768831
2 4.627235 9.576041 12.722754
1 5.005564 10.112966 14.472984
2 6.167301 10.877965 15.197741
1 2.549137 10.315377 1.560600
2 5.619001 9.220172 2.204373
1 4.661861 9.560045 4.669686
1 4.945414 9.722783 5.970681
2 5.920038 10.859830 7.029529
2 4.593788 9.588599 9.689692
2 3.532368 11.276434 12.446884
2 4.530968 12.123976 12.816973
2 3.890739 10.231343 13.451777
1 1.823990 10.853123 14.363190
1 3.820907 12.159400 1.504102
1 5.125092 10.589009 2.300429
1 4.640990 10.027100 3.372949
1 4.472501 12.383193 5.470889
2 2.811570 11.039069 8.863366
1 4.729586 14.665742 9.635454
1 3.531169 9.861671 10.628692
1 3.547321 13.593244 12.859018
2 4.694327 15.283026 13.247486
2 2.942027 14.174174 16.699841
2 4.986278 14.605623 2.045816
1 6.856745 13.063993 2.080755
2 3.289433 13.097252 5.612111
2 6.087437 11.458556 3.935874
1 5.958916 10.818411 8.633044
1 5.923817 12.834985 6.955304
1 3.793712 10.362645 11.424015
1 4.568571 13.716866 11.974704
2 7.245033 13.793265 11.311812
1 2.473255 11.729643 18.308656
2 3.147053 15.949673 1.099339
2 4.778971 15.624348 2.792225
1 4.987169 13.917813 1.036946
2 5.743114 11.579311 6.188962
2 4.455603 16.377111 7.393112
1 3.738827 16.724860 9.787067
2 3.453892 15.500241 12.489474
2 2.826613 14.741228 12.857703
1 4.877482 15.760795 14.987660
2 3.379132 16.248065 16.375415
2 5.072250 13.960782 -0.256573
2 5.037095 18.557891 1.699365
2 3.638048 14.126693 6.465057
1 3.834143 15.355645 1.963799
2 2.893109 18.105275 6.496112
2 4.256096 0.667675 9.706179
1 3.935296 0.481641 10.869045
2 4.154917 -0.305410 14.000466
1 7.426523 -0.321741 14.449352
1 5.946488 -0.763961 12.887741
2 5.757307 1.799388 -0.901465
2 3.848737 1.277791 2.233651
2 4.651174 1.144187 4.975775
1 4.053159 0.454310 5.456012
1 3.970193 -0.362697 6.238336
2 4.572730 4.172030 8.922600
1 5.030368 5.370204 8.877345
2 3.741092 4.197129 12.878371
2 5.886662 3.664485 14.364484
1 4.257666 5.378421 16.041888
1 3.280616 1.045243 1.123451
2 4.917544 1.157538 2.916371
1 5.648288 1.832986 5.098402
2 4.540216 3.920056 6.702578
2 5.145729 0.953304 8.096376
2 7.440788 5.682266 9.415847
2 3.263583 5.972343 10.429718
1 7.339263 6.108965 13.363358
2 4.288595 4.615401 13.996838
1 6.272274 4.760796 17.405204
1 4.437563 3.994952 0.104597
1 3.419384 4.226614 1.917145
2 2.769136 4.389710 2.807704
1 5.040486 4.393813 3.604735
2 4.961859 3.054542 9.105590
1 3.968538 6.702325 8.601753
1 4.830227 7.054093 11.498606
2 6.859209 7.557582 12.482698
1 2.767223 5.981227 13.411270
1 5.492778 4.128139 16.877412
1 4.729264 5.006951 0.038605
2 4.303642 5.472706 1.066243
1 3.016846 7.121211 0.882101
2 5.299085 3.730661 5.833518
2 4.611895 5.075219 7.984102
1 6.230691 7.494444 8.732072
1 5.250488 8.772366 11.119017
2 1.239396 8.193725 12.063843
2 5.033273 5.614249 14.156251
1 5.691122 8.413259 16.947735
1 4.287823 7.203478 1.490707
2 3.134544 8.699439 1.906521
2 5.466182 6.811661 3.027244
1 2.125291 7.815934 7.857400
2 2.821079 7.804064 9.215755
2 5.369561 11.452518 7.984433
2 4.393584 10.656118 10.580580
1 4.521075 11.192761 11.838077
1 6.400057 7.047430 13.875650
2 4.721673 8.782099 16.529938
1 7.603073 8.799116 2.506342
1 5.528585 11.548947 2.275801
2 4.844533 11.043131 3.882056
2 5.534764 9.298495 7.052473
1 5.624644 8.864143 8.166439
1 7.263742 12.075542 6.478411
2 5.927690 10.191627 11.262691
2 4.243933 12.052957 10.759925
2 5.155412 13.489878 14.582766
2 6.354559 10.052314 15.977977
2 3.586594 9.983132 0.909607
1 7.132924 12.157316 3.622506
1 4.740284 12.285526 4.280417
1 5.348124 11.315903 4.874190
1 6.537434 12.001623 9.422102
1 5.406879 10.322671 10.102649
2 6.615045 12.053897 10.766296
2 5.545566 11.799198 11.446749
2 3.051626 11.802141 13.533337
1 7.310140 14.227148 16.832134
1 6.476176 13.060434 0.506985
2 6.182361 10.148641 4.698383
1 5.929938 13.159833 3.219952
2 6.439359 12.409563 5.767154
1 7.778830 12.962440 8.565448
1 6.313047 15.290075 7.891763
2 5.431404 13.247592 11.280470
2 4.874041 14.587697 14.988890
1 8.199518 14.276624 13.417368
1 6.920101 14.264269 14.969557
2 8.679933 13.341891 -0.022298
1 6.452323 14.103232 0.625190
1 6.923401 13.343564 5.299297
2 7.577004 14.720463 6.119605
1 6.032385 14.329158 8.945827
1 5.871411 16.116530 6.806404
1 5.481010 16.470207 11.457248
2 2.973490 15.005055 14.060877
1 7.258620 15.956283 15.481347
1 6.159164 15.969050 14.976450
1 7.952536 16.325170 2.444001
1 5.428821 17.183300 2.507918
1 3.852162 17.353272 2.020763
2 5.861190 16.951978 4.911393
2 4.967468 15.483795 7.989187
2 6.761871 0.640177 10.237636
1 7.923460 1.307845 12.457158
2 7.275856 0.046452 11.576001
2 6.804028 0.853747 14.003179
1 6.750784 2.012899 14.734318
1 6.651545 0.596857 -0.630527
2 5.418602 0.951649 4.216744
2 5.769638 1.803438 2.979362
1 6.573656 1.916852 5.871501
1 6.876303 -0.891530 5.585244
1 6.158218 3.393224 10.005479
1 6.010170 2.279721 10.363514
2 6.890158 1.169421 11.655070
2 7.154866 3.970386 14.214041
1 5.856128 2.755101 15.746647
1 6.906255 -0.168683 0.858752
1 4.114515 2.971080 2.005931
1 4.721777 2.601723 5.246541
2 2.994428 1.318054 4.929843
1 5.531379 2.461589 7.771508
1 5.581537 4.301154 9.106181
2 5.098515 3.971641 12.620488
2 5.193828 4.476564 13.529029
2 9.569870 2.627911 16.319119
2 4.673838 2.798021 16.457446
1 6.261130 3.588847 0.508140
2 4.111193 4.105492 2.920101
1 7.674498 3.566247 6.354251
2 5.796563 2.886304 5.141396
1 4.775851 5.827355 6.969872
2 4.165505 6.990940 10.277760
1 5.642877 6.308030 12.307937
2 6.849630 5.711041 14.270437
2 6.621715 3.993761 15.262159
2 6.619556 7.509237 17.366684
1 5.667351 5.510503 1.560492
1 5.503347 6.576534 1.949831
1 6.350154 6.749317 5.739683
2 5.374086 7.169408 4.443543
2 5.347195 5.038476 6.449564
2 3.800496 8.805282 10.646844
2 6.286555 8.636493 11.493554
1 6.919514 8.879828 12.848585
2 5.598904 8.598082 15.962155
1 6.782471 8.291963 18.389444
1 4.941671 8.472874 0.593506
1 5.153934 8.432418 4.651052
2 3.983856 8.652628 3.673976
2 6.108037 10.586710 5.664091
2 6.420870 6.694122 7.553774
1 9.363791 11.126223 10.683619
1 8.344646 10.272652 10.083828
1 8.251143 8.922160 12.859157
2 9.022659 6.599325 15.811606
1 8.871293 11.365197 17.534950
2 7.218033 8.512197 -0.720942
1 9.237402 7.954497 2.801246
2 7.878268 8.775074 4.533089
1 7.069071 9.603638 6.491644
1 7.372900 8.378131 7.826899
2 8.583849 12.275341 9.566046
2 8.212534 9.723399 11.082914
2 7.579819 10.304972 13.292153
2 6.169612 10.875940 13.407501
1 5.559827 13.169641 16.588006
2 7.267508 9.291966 1.464277
2 8.774501 10.634528 3.040579
1 8.811777 10.442587 5.068524
1 6.982508 13.077268 6.907515
1 9.235975 9.920309 6.554078
2 6.508782 11.989235 7.611550
2 7.603460 12.385521 11.167813
2 6.589798 13.782001 12.712661
1 6.952634 12.272730 16.147383
1 6.905436 15.158275 16.133123
1 7.065369 9.809439 0.404839
2 8.298116 14.991164 1.287601
1 9.054319 13.961874 5.103977
2 8.162892 12.564668 7.363520
2 5.233134 12.578332 8.251601
2 8.178765 16.664096 7.336370
2 8.137553 14.515926 11.134806
2 8.752592 12.063923 12.538103
1 7.430354 13.154891 16.196841
2 6.188483 16.269466 16.100436
2 5.248784 16.958246 -0.966510
2 7.840721 13.783633 3.836958
1 9.325760 14.351317 6.391330
1 8.167247 13.477739 4.924271
1 8.718124 15.095325 5.556155
2 7.789973 17.392003 10.541800
1 6.988440 16.042195 12.990970
2 6.299932 18.997782 12.290067
1 8.520727 16.434709 15.653126
1 8.886025 14.666229 14.384033
1 8.165362 17.536983 -0.169807
1 6.864412 16.314089 1.806573
2 6.758214 17.760417 2.942154
1 7.199657 15.918777 7.422685
1 6.315971 17.198012 8.974932
2 9.718560 0.566346 10.505070
2 8.885689 -1.553693 10.358808
1 9.609955 0.141990 12.082711
2 7.888548 1.992211 14.649010
1 8.752034 0.771194 18.043986
2 5.944183 2.447562 0.217038
1 10.429097 -0.218747 2.243807
2 8.649104 2.116706 5.058212
2 6.699532 0.447682 5.417515
1 6.306793 -0.758678 7.917942
1 5.233055 1.723715 8.941087
2 6.751940 0.664644 7.528891
2 6.656535 3.137338 11.962226
2 6.940069 2.865320 15.587513
1 6.929309 2.455865 16.659445
2 7.224495 2.442791 1.305429
2 6.811367 1.674297 3.377159
2 7.136600 2.380029 4.328799
2 6.824249 3.530602 5.276806
1 7.451074 3.285995 7.501445
1 8.410246 5.821215 7.196004
1 7.338736 4.711699 11.693806
2 7.100555 2.811576 13.646769
2 8.834579 4.439734 13.375006
1 10.015869 3.458302 17.381181
1 7.757346 5.700467 1.041854
2 8.754627 4.373679 0.708276
2 5.869428 2.472882 3.900042
1 7.774867 5.353346 6.417786
2 7.395397 5.749918 7.974377
1 7.961779 7.287156 10.879037
2 7.497532 5.516570 10.829169
2 10.341106 8.895719 12.818399
1 9.877903 4.396990 13.845937