1000
Lattice="11.262478804436059 0.0 0.0 0.0 11.262478804436059 0.0 0.0 0.0 11.262478804436059" Properties=:species:S:1:pos:R:3 Time=1000
1 6.959213 4.782684 5.936887
1 6.013646 6.437566 6.821967
1 6.177967 6.284579 8.380003
1 5.119264 6.208209 9.842626
2 5.253891 5.967352 11.014219
1 5.668660 7.078033 0.100504
2 5.495262 5.495220 1.475789
1 6.370374 6.488180 2.315245
1 5.660895 6.304226 3.900671
2 6.206049 6.325672 4.920943
2 6.195407 7.534522 6.851791
2 6.009565 7.460189 8.056879
2 5.339375 7.931771 8.941343
2 5.967113 7.905652 9.953301
1 5.552810 7.049626 10.233080
2 7.090646 7.242542 0.407855
2 5.518468 7.513481 2.260730
2 5.578637 8.360118 3.119807
2 5.901692 7.375770 3.504343
1 5.940468 8.283828 4.157553
1 5.637808 8.309083 6.327415
2 6.692694 8.746796 7.233059
2 6.817836 8.215817 8.241226
1 6.249279 8.515060 9.066812
1 6.604326 7.976858 11.057565
1 6.326294 8.633340 0.791418
2 6.599573 7.331632 1.521294
2 6.599383 9.196511 3.710592
2 5.901488 9.034356 4.839718
2 7.034762 9.654368 5.187533
1 5.626739 9.380532 6.775954
2 6.582140 9.970032 7.307370
1 6.170698 9.123173 8.255137
1 7.073234 9.365318 8.898087
2 6.223852 8.924380 10.812655
1 6.149685 9.529346 0.355338
1 6.092685 9.930717 1.378758
1 7.043771 9.584309 2.353190
1 5.539543 10.310130 3.727518
2 6.283295 10.073729 4.621603
2 6.369017 10.533925 5.840912
1 6.315101 10.176675 8.394636
2 7.851987 10.267169 7.285448
2 6.185937 11.214432 10.075213
1 5.793399 10.061995 10.689610
2 4.918634 10.360510 0.239323
2 5.701033 10.570683 2.434641
2 6.579567 10.138844 3.230612
2 5.680452 11.233663 4.856379
1 5.420662 9.551274 5.808480
1 6.077417 0.412054 5.788387
1 6.213016 0.662596 6.774509
2 6.479167 0.146444 8.993112
2 7.604762 0.970031 9.187775
2 6.282060 -0.340545 11.301163
1 6.758782 0.171010 1.039614
2 6.962501 0.640150 2.146439
2 6.196693 0.304137 2.828300
1 6.360312 1.225620 3.600852
1 5.500135 1.078936 4.052982
1 6.136582 1.409424 5.704528
1 5.515131 1.420005 6.661807
1 5.616330 2.461718 8.891368
1 5.978407 1.495289 10.086818
1 6.216825 0.839642 11.181175
1 6.310817 2.003420 0.503753
1 6.202890 1.416129 2.217971
2 5.288459 2.228657 2.281855
2 6.901578 2.099111 4.191479
2 5.764630 2.161405 4.974039
2 5.896143 2.721589 6.400937
1 6.946735 2.861926 8.170652
1 4.674006 3.866699 8.652059
2 5.863335 3.363490 9.824151
1 5.617477 2.116661 10.950679
2 6.061083 3.275652 0.570057
2 6.505219 2.734464 2.016572
2 6.171606 2.392458 3.094852
1 6.096141 2.958206 4.356034
1 5.952109 3.178916 5.330897
2 6.317344 3.597753 7.397327
2 5.408253 4.131585 7.656994
2 5.825180 3.616564 8.695367
1 6.729624 4.021372 9.396063
2 6.662854 3.976802 10.476177
2 5.837542 4.460064 1.396604
2 6.022921 3.764938 2.296535
2 5.528859 4.330422 3.196553
2 5.881790 4.122665 4.338653
1 6.089609 4.995902 5.087012
2 6.037223 4.187084 5.819902
2 6.282492 4.937038 6.718037
1 6.695163 4.922424 8.745926
2 6.004131 5.464297 9.277114
1 6.286033 5.081709 10.638347
1 7.270758 5.376778 0.398625
2 6.251010 5.162287 2.202597
1 5.686360 5.414661 3.202362
1 5.304278 5.101004 4.171265
1 6.315337 5.049787 4.022391
2 7.000280 5.773780 7.298264
1 7.002419 6.837524 7.680089
1 7.228374 6.079014 8.875202
2 8.466141 5.827358 9.715268
2 6.252601 6.149033 10.501241
1 6.337417 6.189274 0.386842
1 7.032953 6.231103 1.348712
2 6.979943 5.712913 3.235076
1 8.108695 6.908782 3.535042
2 7.161702 5.855393 6.103600
1 7.000724 6.760834 6.588229
2 8.169138 7.111041 6.976326
1 7.067344 7.188163 8.767723
2 7.640308 7.557565 9.614321
2 7.616830 7.895391 10.823947
1 7.955827 6.499591 0.458200
2 7.406502 7.184093 2.143771
2 6.912591 6.887294 3.238990
2 7.278556 6.294486 4.261306
2 6.276585 7.774019 5.537683
2 7.353154 7.606427 6.146988
1 7.327783 9.501720 7.962762
2 8.088229 7.442893 7.969096
1 6.786024 8.705286 9.857124
1 7.348793 8.408112 11.748394
1 7.553702 8.060100 1.495219
2 7.221102 8.465916 2.466813
1 6.956707 8.027844 3.589196
1 7.828828 8.057479 4.201303
1 8.152381 7.885560 5.363686
2 6.820608 8.692761 5.781208
2 7.211866 9.785361 6.365936
1 8.448580 9.378218 8.311073
1 7.625730 10.471550 9.654431
1 7.110634 9.604889 11.023741
1 6.972296 9.322025 1.311809
2 7.714637 10.178345 1.463209
1 7.043090 8.735857 4.628714
1 8.130581 9.286677 4.925321
1 7.955783 10.358017 5.187298
1 7.631310 11.136855 6.111447
1 6.685364 10.867090 6.797206
1 7.278571 11.159938 7.635631
2 6.376646 10.203013 9.417399
2 7.259777 11.083721 10.729593
2 6.930716 10.306729 0.663945
2 6.792341 10.562272 2.067507
2 7.824633 10.537264 2.978906
2 7.419577 10.070204 4.110656
1 6.612627 12.130704 4.609272
2 7.156469 0.702769 5.808210
1 7.235152 0.638484 6.868922
2 6.732523 0.872693 8.032955
2 8.423517 0.131498 9.701515
1 6.975653 0.629884 10.056936
2 7.532511 1.061387 0.826975
2 7.884820 1.119382 1.849841
1 7.959085 0.035661 3.772334
1 6.765460 -0.056088 3.743608
2 8.102067 0.443623 4.856986
1 6.463228 1.797185 6.926765
1 7.201331 1.880619 7.764276
2 6.913874 1.911767 9.295403
2 8.041776 1.684896 10.215737
1 6.756066 1.850429 10.772710
2 7.725988 2.088372 -0.181860
1 7.448777 2.136458 1.162454
2 7.123012 1.705873 2.838225
1 8.428643 0.966845 3.888037
1 7.484901 1.365109 5.213794
2 6.914440 3.689731 5.481195
2 6.775028 2.272412 5.347774
1 8.368744 2.990251 7.052945
1 6.318497 2.749530 10.498133
2 7.718694 3.154581 11.511998
1 6.875360 3.734014 1.023927
1 7.741606 2.857640 1.927584
2 7.240962 3.139179 2.975457
2 8.336630 3.266504 3.301575
1 6.856310 3.672436 4.422387
1 7.478940 3.757811 6.917636
1 6.783766 4.576116 7.668452
1 7.540398 3.993743 8.531087
1 6.890500 2.993960 9.702888
2 7.618928 4.239026 9.866638
1 6.587695 4.576831 0.409227
2 7.082677 3.933082 2.024851
2 7.787465 5.039860 3.555335
1 7.334269 3.917620 3.607988
1 7.254978 4.611452 5.030430
2 8.089201 4.361870 5.729925
2 8.010357 4.510574 7.705228
1 7.405505 5.280486 8.151642
2 7.021349 5.275483 9.888341
2 7.591779 4.640498 10.960841
2 7.982477 5.291615 1.134916
1 7.294113 5.194442 1.926345
2 6.730578 4.642852 3.061257
2 7.391158 5.588260 5.027324
1 8.336198 5.375824 6.193518
2 8.542312 6.544309 5.903720
2 7.945619 6.237208 7.894008
1 8.498851 5.833037 8.682407
2 9.356090 6.497311 9.421384
1 7.505442 6.911635 10.590104
1 9.148149 6.803043 0.688042
2 8.721062 5.933704 1.829036
1 9.625021 5.544257 2.167577
2 8.367225 5.933564 4.076528
1 8.407207 5.863625 5.103054
1 8.868624 7.908473 6.179066
1 9.301428 7.585523 7.171616
1 8.215490 6.769116 9.062152
2 6.295373 6.584637 9.423496
1 9.569899 6.607528 10.574895
2 8.387066 7.615319 0.701863
1 7.713698 6.119446 2.253313
1 8.368282 7.973126 2.327976
1 8.344311 6.995724 4.640683
2 7.468559 6.559399 5.346677
2 9.166181 9.268534 6.558530
1 7.322454 7.928828 7.265954
1 8.999320 8.040962 8.336611
1 8.699509 7.743761 9.326267
2 8.415933 8.438577 11.262091
1 7.976184 9.033449 1.693902
2 9.430300 7.833415 2.852477
1 8.271225 8.583261 3.241163
2 8.712943 8.701485 4.192981
1 8.162528 9.407449 5.985032
2 8.415051 10.348543 6.379731
1 9.114515 9.741985 7.533814
2 7.902501 8.465455 8.312323
1 8.671899 10.462174 9.164614
1 7.911438 8.967137 10.299525
2 8.116151 9.525799 0.415785
1 8.921777 8.337776 1.525319
1 7.647920 9.410250 3.107189
2 8.605483 9.966430 3.453806
2 8.924075 9.977764 5.337488
1 9.097005 12.294445 6.842907
2 8.301649 11.310766 6.942604
2 8.914061 10.643730 8.064396
2 7.695211 10.451712 8.535102
1 8.297493 10.318712 10.566835
2 7.649652 11.147166 0.503652
1 7.885448 11.168864 1.970585
2 8.920803 10.460254 1.868876
2 7.236862 11.024698 4.635619
2 8.822125 11.094584 5.480921
1 7.379375 1.553773 6.424076
1 8.155969 1.111502 7.702146
1 8.315947 0.281397 8.494429
1 9.096894 0.258171 11.370956
2 8.216301 0.620743 10.797481
1 8.651203 0.175741 1.294272
2 9.665577 0.232810 1.825095
2 7.788298 0.511042 2.902480
2 9.120185 0.319336 4.363030
1 8.268835 0.870227 5.992139
1 8.224782 1.980844 5.628378
2 8.499184 1.946770 6.592042
2 7.854409 2.769358 8.725967
2 8.177317 1.746107 8.565714
1 8.631567 1.409336 11.719123
2 9.668903 1.761662 -0.046744
2 8.368538 1.914844 2.514770
2 8.921246 0.970154 2.284007
2 8.910780 1.862411 3.631606
1 7.356482 0.960396 3.930788
2 9.190520 3.372276 6.325013
2 7.572096 2.702128 6.495487
1 8.321507 3.493507 9.400439
1 8.959288 2.168255 9.793996
1 7.817822 2.886673 10.281094
2 8.660171 2.683681 -0.145648
1 8.457504 2.641643 1.071699
1 7.836538 2.289442 3.330758
1 7.916463 1.764286 4.143480
1 7.984569 3.264649 5.640663
2 8.007246 3.875418 4.436646
1 9.135132 4.507405 7.534886
2 9.362923 3.333682 7.637736
1 9.399977 3.952663 8.653722
1 8.221203 3.756258 10.712345
1 8.431547 4.217028 0.387312
2 7.898952 4.168425 2.750962
2 9.270097 2.790078 3.122847
2 8.426199 4.947993 4.576834
1 7.647238 2.466563 4.911347
1 7.598806 4.785826 6.750636
2 8.354102 5.431596 7.243832
1 9.400138 5.262256 8.113222
1 7.705120 5.073286 9.154525
1 8.543887 4.536823 8.786949
1 8.600865 5.270678 0.136809
1 8.156672 4.107355 1.627876
2 8.452397 4.897166 2.161844
1 8.567613 5.716760 2.859063
1 9.268915 5.806157 5.466498
1 8.859741 6.246224 6.985443
2 9.211194 7.011682 8.295432
1 10.308474 6.683863 9.026988
2 9.815083 7.605166 9.097349
1 8.714827 6.049205 10.686973
2 10.075776 5.608010 1.219774
1 8.949560 6.925715 1.679357
1 8.922781 6.815025 2.831241
2 9.334177 5.961245 3.759894
1 9.924687 5.803571 4.697506
2 9.981954 8.112819 5.848478
1 9.152011 7.735074 5.001776
2 8.864216 7.763612 10.476754
1 8.480882 6.900286 9.976704
2 9.736929 8.393640 10.250515
2 10.142606 6.957725 0.594593
1 9.894849 7.658056 1.444901
1 9.858420 7.101211 3.548791
2 8.886173 7.484878 3.805235
1 9.460606 6.695459 4.502723
1 11.077380 8.486771 5.989879
1 8.628892 8.371761 7.276425
2 9.597998 8.604758 7.547417
1 8.985072 9.688488 9.879649
1 8.029927 9.534265 9.401769
2 9.481505 8.446951 0.503681
2 9.921940 8.522537 2.159589
1 9.487794 8.915840 3.462296
2 9.739851 8.027552 4.098316
2 9.090254 8.718617 5.368557
1 11.346178 9.273798 5.283943
2 10.419942 9.393944 7.810167
1 9.457068 9.583183 8.672379
2 10.248631 9.027920 11.033880
1 8.900989 9.308639 10.952174
1 10.640677 9.289088 1.781845
2 9.136353 9.380261 0.973575
2 8.936286 9.248713 2.430186
1 9.775201 9.897018 3.664576
2 9.567233 9.278956 4.578804
2 10.022128 9.263342 5.598056
1 9.119125 11.732277 7.865182
2 10.837019 10.078496 8.714077
2 9.385652 11.365057 9.021833
2 9.143771 10.914996 10.349773
1 8.533175 10.451243 0.546914
1 9.623977 10.606266 0.896714
2 10.435078 10.934941 3.402452
2 8.603941 10.517037 4.364206
2 9.673901 10.692233 4.835007
2 9.829128 -0.352991 5.944227
2 9.753154 1.593645 6.201230
2 9.978050 -0.300993 7.969381
1 8.837977 1.065533 9.388764
1 10.819304 0.018812 11.294908
2 9.533991 0.991717 0.835550
1 9.765130 1.481504 2.665883
1 9.201698 -0.392959 2.918831
2 10.713366 1.830974 4.785287
2 9.351530 0.825195 5.385038
2 9.885841 2.538321 4.700286
1 9.228873 2.425556 5.716049
1 9.027723 2.098692 7.754291
2 8.988047 2.945027 8.654492
2 9.400867 1.159027 10.391063
2 10.875897 1.844159 0.017539
2 9.024454 1.785716 1.513976
2 11.182388 1.837576 3.540685
2 10.016391 1.996922 3.628855
2 9.063670 1.698655 4.964067
2 10.475764 2.437515 5.680219
1 8.270840 3.490252 7.989894
1 9.092353 3.305575 10.276235
1 9.794254 1.715265 9.354661
2 9.874259 2.499105 10.513866
1 9.014527 3.687899 1.149617
2 10.115631 2.732579 0.962694
1 8.643385 3.505259 2.314601
1 8.715972 2.774521 4.253528
1 8.966732 3.306092 5.087948
2 9.200493 4.900701 5.710308
2 10.795220 3.444831 7.190578
1 10.474802 3.377441 8.419175
1 9.020723 4.161287 9.747185
2 8.530484 4.985825 10.392116
2 9.574470 3.195315 0.020715
2 9.242044 2.797554 1.868695
1 9.400892 4.357150 2.127972
2 8.791236 4.076596 3.812629
1 9.550094 3.462474 4.282857
2 9.447265 5.468697 6.649466
2 9.756340 6.434107 7.489542
2 10.093379 4.526582 9.220242
1 9.377996 5.455620 9.252156
1 9.623593 4.760346 11.587608
2 9.007019 4.768102 1.120803
2 10.098141 4.215196 1.340540
2 9.480527 5.041228 3.099759
2 9.481126 4.788796 4.423147
2 10.134587 4.266795 5.468438
2 9.647694 6.523138 6.292109
2 11.105385 6.799892 8.182148
1 11.488830 7.227767 9.437301
2 9.663666 5.445152 10.282093
2 9.536472 5.902145 11.424614
2 10.882326 6.077291 0.441828
1 10.078544 6.609786 1.717678
2 10.650056 5.526952 2.473119
2 9.921586 6.245215 2.885077
1 11.269967 6.613426 5.151706
1 10.257943 7.395575 6.838332
1 10.343140 7.548622 7.914535
1 11.052031 7.828547 8.603773
2 10.626062 7.082130 10.263092
1 9.860813 7.699370 11.004459
2 11.072427 7.112079 1.052360
2 11.083039 8.198982 1.629070
2 10.549593 7.388132 2.244797
1 10.980723 6.882226 3.155588
2 10.641281 7.247025 4.195168
2 10.160780 6.867528 5.318024
1 10.845496 8.242100 7.066971
1 11.424597 9.174277 9.332825
2 9.242396 8.680421 9.336908
2 10.726013 8.264727 9.654996
1 10.778282 8.139629 0.529128
1 12.032495 9.808457 1.489628
2 10.446951 7.912169 3.188335
2 10.464643 9.075842 3.618739
1 10.988997 8.120690 4.869644
1 10.258634 9.011586 6.729225
2 11.162718 10.271150 7.601614
2 10.020710 8.608185 8.598533
1 10.121120 9.395374 9.645968
1 10.830784 9.722010 10.282547
1 9.537105 9.937825 -0.592430
1 10.456054 10.249387 1.864255
1 10.151282 9.540647 2.663535
1 10.586031 9.725537 4.428273
1 12.026407 8.129814 5.046321
1 11.266707 10.618192 6.555501
2 10.282588 10.343590 7.027435
1 10.762394 11.275466 8.920227
1 10.918209 10.621005 9.792842
1 11.560083 10.619883 10.816645
1 10.365224 11.436064 1.095256
2 10.639562 11.368147 2.385887
2 11.099428 9.951813 2.548886
1 10.263100 11.616261 4.640866
1 10.735524 10.561225 5.134725
1 11.304974 0.787384 6.424203
2 10.236613 0.554518 6.948470
1 9.214310 1.362007 8.390880
1 9.681208 -0.926105 9.402546
1 10.159044 0.170904 10.436134
2 11.228247 0.863832 0.686549
1 11.597969 0.619156 1.673595
1 9.546121 0.880268 3.630316
1 11.068960 0.814951 4.272519
1 10.254224 0.541011 5.714464
1 11.365609 3.203416 5.950375
2 10.096448 1.554989 7.345717
1 11.461261 0.832512 8.462834
1 10.469314 0.812105 9.417780
1 10.223671 0.924080 11.053586
1 11.846865 1.913519 0.502977
2 10.312631 1.149991 1.664075
2 11.108172 1.577166 2.436303
1 10.485974 2.985334 3.487169
1 10.904473 1.532128 5.857390
2 11.245545 4.008020 5.195436
2 10.309054 2.507024 6.739598
2 9.959386 2.432680 8.099545
1 10.852574 2.356368 8.669682
2 10.793688 2.994251 10.828812
1 11.184233 2.816196 0.620415
2 10.504131 2.540958 2.482415
2 9.960149 3.423967 2.433133
2 12.027497 3.572788 4.581018
1 10.492902 3.478470 4.656305
1 9.906230 4.411166 6.713382
2 10.382700 4.598252 7.970393
1 11.155900 3.736098 9.146822
2 10.020035 3.495036 9.465122
1 11.102238 4.145245 10.895014
1 10.559101 3.620957 0.447146
2 10.698335 3.300354 1.606497
2 10.671247 4.400618 2.313604
2 9.943814 4.124471 3.440359
1 11.440946 4.691574 4.316827
1 10.472379 5.871301 6.087597
1 10.449107 5.398629 7.219623
1 10.365317 5.616298 8.342793
2 9.962180 4.123503 10.467299
1 11.099273 5.420502 10.856500
2 10.663050 4.736437 0.353239
2 11.026252 5.141876 1.497108
2 11.822133 5.353643 2.333373
2 10.335110 5.301365 3.839863
1 10.518726 4.396031 4.443620
1 -0.439615 6.529402 6.849623
1 0.908046 6.772411 8.068313
1 -0.038746 5.930550 8.883137
2 0.855614 5.612331 9.588043
1 -0.119066 6.292943 9.848782
1 0.636374 5.885188 -0.120215
2 0.881787 6.183233 1.008567
1 0.032743 6.310817 2.050034
1 -0.049537 6.160017 4.137792
1 0.466207 5.898454 5.716937
2 0.266138 7.527889 7.181322
1 1.226684 7.864027 8.120419
1 1.327487 7.163318 9.779227
2 0.414183 7.834113 10.317830
2 -0.094939 7.043563 11.162470
2 1.459622 6.842114 0.435805
2 0.365380 7.481851 2.418513
2 0.968837 7.640497 3.332766
1 -0.005266 8.181259 3.799113
1 0.062987 7.108385 6.086471
1 0.793951 6.384677 6.830732
2 1.299613 7.954024 6.954496
2 0.343286 8.666956 8.385523
2 1.245137 8.586902 10.489848
2 0.115313 8.731705 10.633038
2 0.700689 8.129079 0.228043
1 1.273474 8.826116 2.503133
2 1.469494 8.570108 3.438489
1 0.200110 9.288981 4.199191
2 0.712947 9.169456 6.214471
1 -0.432131 9.790406 6.219364
1 0.504297 8.745863 7.275498
2 0.858089 9.550893 8.143566
2 1.006895 10.043094 9.225414
1 1.412968 9.607200 10.514276
1 -0.117794 9.271832 0.945190
2 1.153521 8.771201 1.431880
2 0.244336 8.718447 2.871694
1 0.179847 10.680294 3.246573
2 1.155741 9.474766 5.174110
2 1.112394 10.599302 6.663255
1 -0.106360 11.507856 7.596317
2 0.372346 10.811042 8.589872
2 -0.122412 11.806933 10.383047
2 0.968956 11.401004 10.537411
1 0.704318 11.332326 0.511600
2 0.022629 10.808716 1.467258
2 0.598214 11.128408 2.363168
2 0.280445 10.413278 4.627249
2 0.527484 10.286269 5.668072
1 1.120603 0.647567 6.340406
1 -0.118759 1.372732 7.271727
2 -1.016772 0.821115 8.162811
1 1.581582 1.275734 9.956525
2 0.711090 1.173366 10.909054
2 1.793237 1.258234 0.128609
1 1.233897 0.031252 1.379282
1 -0.786885 0.911635 3.150289
2 0.614483 0.523577 3.661161
2 -0.115016 0.188705 5.399269
2 1.043889 1.598786 5.813158
1 0.331398 2.257848 6.390992
2 0.335505 1.750098 8.151025
2 0.223826 1.605226 9.571994
2 -0.615015 1.718993 10.227606
1 1.006104 1.060262 1.136811
2 0.287942 1.884795 1.455360
2 1.032127 0.883088 2.664125
1 1.254461 1.639877 3.394483
2 0.172644 2.717417 4.907530
1 1.202903 2.804155 6.164560
1 -0.310006 2.469258 7.554396
2 0.417814 3.247689 8.018304
2 -0.307201 2.810584 9.563209
1 0.623818 3.256991 11.090224
1 0.336424 3.765464 0.743463
2 0.537736 3.018493 1.721577
1 0.577979 2.354930 2.536711
1 0.942078 2.690764 3.634755
2 1.992622 3.077600 4.953389
1 -0.267497 4.241918 6.336078
2 0.096375 4.410001 7.533226
2 0.146328 4.949359 8.441042
2 0.581646 3.680044 9.879554
1 1.018106 4.461145 11.488078
2 0.583593 4.323696 1.673049
1 1.868493 3.367649 1.800724
2 0.226931 3.730642 2.586840
2 1.256919 4.294643 3.344601
2 0.921267 4.847903 5.470854
2 0.857095 4.012025 6.484310
1 0.421078 5.094491 6.623731
1 0.078560 5.839569 7.626983
1 -0.818891 5.598827 9.439351
1 -0.199991 4.728702 9.502599
1 0.451181 5.182654 0.665704
1 1.177793 5.199371 1.377041
2 -0.333086 3.878710 3.661621
2 0.091935 4.777360 3.143055
2 -0.367041 5.431839 5.068431
1 1.763153 6.518163 5.953202
1 1.807930 6.302865 6.893502
2 0.996349 5.552201 8.376889
1 2.156205 5.632285 9.261307
1 0.658795 6.662828 10.517251
1 1.925068 6.115588 1.211412
2 1.164510 6.535885 1.980967
2 1.928757 5.939923 4.022942
1 0.685765 7.203382 4.295641
2 1.177240 6.014796 4.896395
1 1.847430 7.537718 5.780801
1 1.972709 7.377465 7.713648
2 1.726936 6.763433 8.873287
1 2.448086 6.557942 9.717924
1 1.281179 8.234053 9.320574
2 0.663762 7.594943 1.332083
2 1.489554 7.515992 2.348698
2 0.718216 6.599035 3.349042
2 1.979152 7.155483 3.342379
1 0.924315 7.068583 5.414298
1 2.346617 8.583631 6.317920
1 1.787591 9.780479 7.537444
1 2.110588 8.812702 9.648557
1 0.703649 9.350327 11.338094
2 1.707120 7.473898 10.862911
2 1.841149 8.192447 0.512417
1 1.988905 8.332836 1.836867
1 2.353893 8.354768 2.904459
1 1.620714 8.089251 4.356508
1 1.562423 8.591276 5.635877
1 1.532746 10.509256 5.302966
2 2.227358 10.541044 6.984154
1 1.562629 9.117043 8.793965
1 2.069770 10.355154 10.018746
2 1.031547 10.383604 11.531548
1 -0.255106 10.234665 0.464243
1 2.106653 10.413378 0.708457
2 2.029898 9.506255 1.412672
1 2.668168 9.457081 2.489248
1 1.303160 10.033678 4.126032
2 1.787870 9.571054 6.442286
2 1.000581 11.656591 7.493252
1 1.157522 10.555046 7.843301
1 0.695858 11.564855 9.142508
2 1.744986 9.271717 11.545260
1 1.602681 11.386478 0.235469
1 1.321220 10.034957 2.264060
2 0.877545 9.509398 3.334030
2 1.297419 10.736454 3.220675
1 2.504846 10.912998 5.257613
1 1.789963 -0.156517 6.029397
2 1.744472 1.553001 7.724733
2 1.049481 1.432567 8.883267
1 1.893332 0.927637 8.588848
2 1.779833 -0.018655 9.200308
1 0.271435 2.239901 -0.808971
1 1.982445 0.779916 1.127828
2 2.009595 0.383653 3.045366
1 1.733173 0.943257 4.034754
2 1.230123 -0.188416 4.469701
2 2.100269 1.098048 5.900498
2 0.988166 1.435127 6.964165
1 2.573059 0.956027 9.477888
1 2.432751 1.882077 10.585662
2 1.279504 2.756270 12.068556
1 2.206690 1.865143 0.859149
1 1.671063 1.358095 2.090057
1 2.615203 1.399562 1.835262
1 0.737562 1.406000 4.369460
2 1.480478 0.670003 5.075517
1 2.044072 1.964801 6.522748
1 0.558789 3.005172 6.991410
2 1.165493 2.364688 7.503518
2 1.360348 2.806024 9.826204
1 2.150416 3.719703 9.678761
2 2.653161 3.150796 0.282010
2 1.439915 2.310772 1.983753
1 1.958432 2.514721 3.104810
1 3.076788 2.402152 3.322596
1 2.847214 2.597406 4.429665
2 1.132884 3.586262 5.579333
2 1.808684 3.450378 6.861617
1 1.460780 3.896633 7.747769
2 0.709536 2.581482 8.987603
1 0.714110 4.921709 10.458360
1 1.832509 4.610726 -0.683539
2 1.640665 4.292319 1.108743
2 1.260111 3.211450 2.807207
2 2.032802 3.548946 4.003809
2 1.754281 4.185917 4.893113
2 2.036286 4.835225 6.886371
2 1.876027 5.860663 7.976597
1 1.073020 4.771390 7.412894
1 1.413226 4.826029 9.133965
2 1.754395 6.070186 10.478380
2 1.545559 5.438990 0.337691
1 1.998905 5.617213 2.108153
1 1.518693 5.405362 2.956494
2 0.805412 5.452548 3.852152
2 1.595829 5.513065 6.022780
1 2.638291 6.136452 6.420800
1 3.021139 5.830187 7.352055
1 2.742668 5.990940 8.604416
1 3.316649 5.232780 9.304262
1 3.010767 6.677354 10.579076
2 2.607025 6.393211 0.204111
2 2.009249 7.274325 1.264435
1 2.557544 6.569366 2.220256
2 3.125486 5.642763 4.277051
2 2.477133 5.918581 5.308305
1 3.088873 7.016616 6.861181
1 3.101726 6.931845 7.861471
2 2.587358 7.623950 8.612918
2 3.293442 6.895634 9.095075
2 2.515565 7.654058 9.935120
2 2.752972 7.498907 0.392649
2 2.984704 8.346499 1.030500
1 2.586871 7.673296 2.243207
1 2.572786 7.894868 4.125561
2 1.764307 7.142975 4.824703
2 3.667491 8.924716 5.557198
1 1.960540 8.468136 7.820969
1 3.597142 9.192815 7.940834
2 2.998027 9.426464 10.452895
1 3.414115 8.662616 11.386845
2 2.845219 9.406153 0.583883
1 4.186253 8.727630 1.477590
2 3.110196 9.077668 3.547769
2 2.586970 9.045529 4.514228
1 2.399092 8.206568 5.066016
2 2.594212 9.440729 5.490426
2 2.632062 7.889679 7.022138
1 2.910685 9.032343 7.304441
2 2.626697 9.147201 8.444065
2 2.506834 8.423998 10.852337
1 3.321026 10.300167 0.463777
1 3.273074 9.824439 1.618461
2 3.587872 10.113976 2.649189
1 4.243407 9.500703 3.996328
2 3.783198 8.553427 4.541030
1 2.947314 10.392203 5.989728
1 1.935653 11.306143 7.842707
1 2.713798 10.159273 7.935047
1 2.689089 11.149066 9.700126
2 2.221380 10.008744 9.035344
1 3.286371 10.441982 -1.196109
2 2.125636 11.283948 2.000420
1 2.867625 10.961443 3.201980
1 1.921207 9.694681 3.220549
1 2.153147 11.215995 4.082411
2 2.843536 0.282056 6.155591
2 2.517270 1.048849 7.051141
2 2.774899 0.262566 8.607813
1 3.569759 0.690189 9.230241
2 2.249860 0.596044 10.507498
1 3.260141 0.536972 -0.805310
1 2.888374 -0.010932 0.240821
2 3.495944 1.380288 3.285140
2 2.754541 0.710781 3.724473
2 2.826325 0.765586 4.857920
1 3.703300 2.149525 6.460516
2 2.624178 2.174892 7.412784
2 2.850170 2.502469 8.407814
1 3.349266 1.684647 10.039465
2 1.241600 2.352167 10.950291
2 2.858839 1.342683 0.182747
1 3.480833 1.740723 1.121332
2 3.126399 2.117402 2.378997
2 2.380734 1.453488 2.890528
2 1.857062 1.832896 4.939162
2 2.924187 3.234041 6.955337
1 1.987695 3.326205 8.458385
2 3.089379 3.529617 8.138798
1 1.827667 2.308693 8.473339
2 2.347898 2.361173 9.555557
2 2.613859 4.133913 -0.318946
2 2.959431 3.190806 1.713106
2 2.193687 4.225908 2.737622
2 3.832553 2.855726 2.660160
2 2.279554 2.826555 6.008067
1 3.226562 3.983657 5.916998
2 3.472229 4.227789 6.991237
1 2.557143 4.321215 8.706440
2 1.079730 3.858775 8.765065
2 2.435862 3.058072 10.418641
2 2.606876 5.353125 -0.912067
2 3.316621 3.963443 0.656852
1 2.512830 4.154830 1.562315
1 2.933916 3.480839 3.345292
1 2.046016 4.156187 6.008547
1 3.262497 5.221847 6.187691
1 2.495556 4.115702 7.488675
1 1.852986 4.729793 8.072319
1 2.801180 4.418004 9.857721
1 3.330723 5.622824 11.192622
2 2.402581 5.106640 1.218242
2 3.101032 6.118058 1.190755
2 2.722656 5.290318 3.176483
2 2.299840 4.605400 3.995363
2 2.581226 4.877718 4.989271
1 2.749693 6.962516 5.834685
1 3.745482 6.594444 6.130791
2 4.089643 6.445176 8.172662
1 4.199306 6.069067 9.205216
1 3.589187 6.837509 11.761621
2 4.327002 6.093159 0.831236
2 3.903172 6.850800 1.605686
2 4.124703 5.712880 1.851857
2 2.951194 6.478770 3.298938
2 4.203306 5.618849 5.772456
2 4.153456 7.678798 5.022336
2 4.192925 7.173936 7.406670
1 3.584131 8.230662 7.670577
2 3.145448 8.487509 9.218831
1 3.825434 6.917754 9.972755
2 4.789519 7.017643 0.774328
1 3.590720 8.210937 2.270937
2 3.498300 7.711700 3.371323
2 3.865692 7.071067 4.077064
2 2.960079 7.208833 4.862293
2 3.494851 7.679365 5.989720
2 3.798023 8.553569 6.648322
2 4.459457 8.962582 8.735057
1 3.515887 8.499274 10.239128
2 5.128206 7.964288 10.776799
1 4.021730 7.787612 1.097128
2 4.568974 7.851609 2.481388
1 3.908677 9.202262 2.449390
2 4.146808 8.591047 3.433318
1 4.956087 8.220613 4.180637
2 4.208159 10.433782 5.676345
2 3.458751 9.836025 6.725893
1 3.548489 9.561733 9.364442
1 4.737816 9.867500 10.380628
1 4.182729 9.062769 10.763753
1 4.398596 8.440765 0.334028
1 4.352192 9.763357 1.749491
2 4.711060 9.964370 2.863262
2 4.358813 10.623922 4.361633
2 4.690337 9.361568 4.932398
2 3.625261 9.697370 4.830349
1 4.305634 10.432290 7.332467
2 3.676522 10.440671 8.442796
1 4.404435 11.013527 9.218471
1 4.367598 11.654164 9.982683
1 4.142636 9.626260 0.464733
1 2.967110 10.978469 1.465127
1 3.592137 11.439181 2.294073
1 3.006941 10.401487 4.132145
1 3.489893 11.022357 5.055459
2 4.013661 1.076645 6.867538
1 5.105658 -0.366623 8.150696
1 3.793493 0.017738 6.666494
1 4.513492 -1.266475 9.334453
1 4.082149 1.221105 10.582841
1 4.521288 0.334668 -0.196904
1 3.317414 0.688267 1.368820
2 4.310401 0.709327 3.004282
1 3.651429 1.970479 4.204916
2 4.002408 1.006136 4.941134
2 4.382209 1.457237 5.957766
1 3.464200 1.512904 7.896006
1 3.893242 0.357394 8.183258
1 4.650331 1.614371 9.729689
1 4.163857 1.657921 11.620549
1 4.268352 0.619083 0.748836
2 3.733982 1.288836 2.084348
1 4.413232 1.726653 2.688837
2 2.330504 1.860050 3.903361
1 3.128704 1.769227 5.597012
2 4.328991 3.141040 6.478528
1 3.661172 2.598227 7.555652
2 3.610170 3.089333 8.956461
1 3.895907 2.403357 9.826224
2 3.258509 2.371556 10.957799
1 3.681755 2.866251 0.518408
2 4.141024 2.357496 1.684719
1 5.323968 3.298703 3.573136
1 3.684739 3.707450 3.997321
2 3.715265 2.794791 5.209034
1 4.472590 3.657864 7.539924
2 3.671346 4.305341 8.868189
2 4.178426 4.218573 9.785036
1 4.822966 3.192662 9.405653
1 3.718122 4.419089 11.072179
2 3.776075 3.413734 -0.479696
2 4.004257 4.256991 1.750515
1 3.340072 3.857006 2.457177
2 3.618536 4.850248 3.854261
1 2.819937 3.777498 4.638366
1 3.989281 5.368109 6.936731
1 5.029820 5.141304 7.251742
1 2.885527 5.058326 8.073661
1 4.164230 5.515744 10.458739
1 4.515652 5.227646 11.349269
2 3.654506 5.133241 0.993610
2 2.907683 4.990876 2.120447
1 3.773934 4.961683 2.581589
1 3.761232 6.329646 4.933995
1 3.686868 4.852588 5.117206
2 4.571127 6.295678 6.794866
2 5.257100 6.622727 7.567902
2 5.204156 5.811943 8.329292
2 4.306613 6.661714 10.981332
1 3.877402 7.765504 10.900647
1 5.760009 5.199905 0.371354
1 5.421908 6.294620 2.901363
2 4.319733 5.825159 4.170832
2 5.237665 5.726436 5.124409
2 6.134526 5.769144 5.839549
2 4.861704 7.133636 6.067669
1 4.902172 8.039508 6.957909
1 4.906442 6.829705 8.989343
1 4.112859 7.899616 8.779590
1 4.543719 7.889024 9.785195
2 4.893718 6.555783 1.988368
2 5.769538 6.613610 1.288711
2 4.703244 7.310316 3.439887
1 6.377160 7.268597 4.399235
1 5.807142 6.794115 5.768280
2 4.746352 8.606032 5.740613
1 4.424797 8.917145 7.341864
2 5.083908 8.435510 8.001880
1 4.798228 8.805030 10.043242
1 5.187104 9.108992 11.144215
2 5.593442 7.755092 1.114094
2 6.184395 8.603323 1.919452
2 5.040402 9.012611 2.069394
2 4.894265 6.882851 4.870865
2 5.310194 7.884251 5.091618
2 4.546390 9.591928 6.316758
2 5.192717 9.644778 7.991726
1 5.464180 9.197813 9.041869
1 5.964804 9.371418 9.877811
2 3.969057 10.686729 10.893235
1 5.132029 9.373348 0.925531
2 5.188112 10.609482 1.495405
1 5.780735 9.392823 2.871883
1 5.307724 9.176204 3.873969
1 5.338740 10.219414 5.089663
2 5.207583 10.913795 5.963641
2 4.472238 12.551924 8.495922
2 5.469968 10.353920 8.962259
1 5.318106 11.380307 9.553498
1 5.095433 10.857185 10.462089
2 5.283342 11.461495 0.611611
2 4.107039 10.906944 1.017038
1 4.485515 11.788648 1.889077
1 5.301881 11.323664 3.525833
2 4.301065 11.487566 5.768959
2 5.247898 0.926392 5.241831
2 5.428691 -0.836447 7.250291
1 5.628727 0.799494 8.116338
2 5.474380 1.232593 9.148853
1 5.391914 0.761370 10.455674
2 5.128406 1.269072 0.224769
1 5.960038 0.173946 1.667055
2 5.232249 1.106566 2.442700
2 3.796453 -0.133956 3.564060
2 4.583377 0.493444 4.167750
2 4.820229 2.514470 5.787549
2 4.886037 0.491148 6.765929
1 4.694139 2.883016 8.292839
1 5.259046 2.391185 9.918027
2 4.552621 2.148222 10.648071
1 5.819957 1.278879 1.155495
1 4.741554 1.357453 1.518453
2 4.599070 1.504497 3.786228
1 4.353538 2.807408 3.653518
2 4.653852 1.901563 4.945140
2 4.943147 3.035862 4.808335
2 4.498086 1.989057 7.193268
1 5.521880 2.304816 7.520856
2 4.582078 5.031694 9.101287
1 5.493017 3.223986 10.877018
1 4.674744 2.693362 0.346913
2 5.593664 2.463052 1.182999
2 4.308853 3.803546 2.783193
2 6.332697 3.590565 3.389316
1 5.564099 2.265549 3.961635
2 5.399465 3.730731 6.589829
1 4.064730 4.531528 7.813752
1 5.577927 4.855662 8.483226
1 5.822562 4.473718 9.449524
1 4.620583 4.101841 10.884126
2 4.399113 3.870007 0.648463
2 4.880219 3.272548 1.745181
2 5.034780 4.396350 2.119614
1 4.704104 3.992672 3.863862
2 4.313353 3.747616 5.357394
1 5.327122 4.944375 6.165797
1 4.439516 4.398108 6.192841
2 6.097273 5.527757 7.652704
1 3.999938 5.439133 8.195035
1 5.296529 5.131351 10.244179
1 5.532371 4.206256 0.212380
1 4.757473 4.854440 1.021619
2 4.915486 5.292868 2.521184
2 4.117380 6.261650 2.876444
1 5.079451 4.655354 5.144531
