ITEM: TIMESTEP
0
ITEM: NUMBER OF ATOMS
1290
ITEM: BOX BOUNDS pp pp pp
-1.6448100000000000e+01 1.6448100000000000e+01
-1.6448100000000000e+01 1.6448100000000000e+01
-1.0000000000000001e-01 1.0000000000000001e-01
ITEM: ATOMS type x y 
3 -15.8415 -15.5035 
1 -15.2448 -16.2532 
3 -16.2394 -16.414 
1 -14.8934 -15.2531 
3 -14.2797 -16.001 
1 -13.4653 -15.562 
1 -12.5712 -16.2649 
3 -12.4611 -15.3232 
1 -11.5241 -15.897 
3 -10.8231 -15.129 
2 -10.6487 -15.997 
1 -9.9662 -15.5046 
1 -8.87783 -15.6249 
3 -9.28183 -16.4084 
2 -8.26986 -16.2651 
1 -7.79733 -15.5267 
3 -6.76107 -15.9302 
1 -5.7879 -16.2079 
3 -5.84185 -15.2612 
2 -4.91954 -15.5171 
3 -4.07824 -15.8842 
2 -3.23614 -16.1621 
1 -3.23454 -15.233 
1 -2.35127 -15.8187 
3 -1.37266 -15.881 
1 -0.174711 -16.1133 
1 -0.685392 -15.166 
3 0.265519 -15.2154 
2 0.721212 -15.9672 
3 1.29233 -15.3428 
1 1.54295 -16.2175 
3 2.26135 -15.459 
1 3.042 -15.9939 
1 4.3505 -16.0157 
2 4.40752 -15.1317 
3 5.25489 -15.2285 
1 5.49913 -16.1589 
1 6.2225 -15.3824 
1 6.52511 -16.4392 
3 7.2112 -15.413 
1 7.58255 -16.3111 
3 8.18182 -15.5729 
1 9.17419 -15.6299 
3 8.64564 -16.4408 
2 10.0307 -15.9306 
1 10.8696 -15.6056 
1 11.5679 -16.3375 
3 11.8119 -15.1889 
1 12.5566 -15.9242 
3 13.3885 -15.4714 
1 13.9354 -16.1812 
3 14.3198 -15.2369 
2 14.8218 -15.9576 
1 15.6533 -16.2163 
2 16.1877 -15.5292 
1 15.3474 -15.1535 
1 -15.6983 -14.5587 
2 -16.2174 -13.7914 
3 -15.3772 -13.6966 
1 -13.9892 -14.6649 
2 -14.8304 -14.4079 
1 -14.3858 -13.6411 
2 -13.1347 -14.7432 
3 -13.4051 -13.8208 
1 -12.4047 -14.3392 
2 -11.6614 -14.9948 
1 -11.2333 -14.1888 
1 -10.196 -14.3803 
2 -9.32877 -14.8662 
3 -9.32457 -13.9748 
1 -8.537 -14.5782 
1 -7.87819 -13.7539 
2 -7.60902 -14.611 
3 -6.93196 -13.9895 
1 -6.79391 -14.9451 
2 -6.03882 -14.3693 
1 -5.10844 -14.6233 
3 -5.23257 -13.7487 
3 -4.18266 -14.8648 
2 -4.35492 -13.9915 
1 -3.50767 -14.1593 
2 -2.64235 -14.5072 
1 -1.782 -14.9286 
3 -1.84568 -14.0417 
2 -1.04864 -14.4104 
1 -0.226793 -14.1033 
1 0.868168 -14.3699 
1 1.86471 -14.5366 
3 1.4356 -13.6304 
2 2.73323 -14.7 
2 2.36724 -13.8077 
1 3.54544 -14.9915 
1 3.26338 -13.9501 
3 4.14952 -14.2913 
1 5.03345 -14.2741 
2 5.91654 -14.5296 
1 5.97336 -13.6358 
1 6.86271 -14.5163 
2 7.82202 -14.7297 
1 7.76444 -13.8171 
2 6.90134 -13.6547 
1 8.67965 -14.6681 
1 8.77754 -13.6252 
2 9.43208 -14.247 
3 9.93944 -14.9786 
1 10.3061 -13.9914 
3 10.9771 -14.6736 
1 11.8599 -14.1996 
1 12.7432 -14.8079 
3 12.8639 -13.8602 
1 13.8262 -14.3985 
2 14.7241 -14.4799 
3 14.4917 -13.6173 
1 15.4069 -13.9457 
3 16.2509 -14.553 
1 -15.8713 -12.8684 
3 -14.9419 -12.7673 
1 -13.6432 -12.7869 
1 -12.6175 -13.2578 
2 -12.7107 -12.4051 
2 -11.843 -13.5798 
3 -11.8514 -12.6498 
1 -11.0041 -13.0698 
1 -9.98653 -13.2662 
2 -10.3224 -12.3881 
1 -9.45246 -12.2607 
1 -8.85237 -13.1436 
2 -7.98808 -12.9023 
3 -7.06461 -13.0264 
1 -6.48145 -12.2615 
1 -6.22975 -13.4011 
1 -5.45917 -12.5931 
1 -4.44366 -13.0277 
2 -3.59238 -13.2955 
1 -3.57711 -12.4082 
3 -2.68951 -13.5145 
2 -2.7026 -12.6426 
1 -1.88615 -13.0606 
3 -0.951734 -13.4693 
3 -0.934329 -12.4026 
1 -0.0801336 -12.9945 
2 0.563987 -13.5552 
1 0.981801 -12.7425 
1 2.11624 -12.9501 
3 3.07051 -13.0006 
2 3.92393 -13.3565 
1 3.82155 -12.3644 
1 4.80108 -13.2231 
2 4.75443 -12.2119 
3 5.59193 -12.5447 
1 6.54191 -12.7093 
3 7.48076 -12.8718 
3 8.58314 -12.6485 
1 9.45094 -12.3674 
3 9.70584 -13.2513 
1 10.5378 -12.6303 
3 11.1878 -13.4045 
3 11.7012 -12.5736 
2 12.1019 -13.3727 
1 12.6531 -12.613 
1 13.5714 -13.2932 
2 13.5475 -12.4268 
1 14.4124 -12.5398 
2 15.1518 -13.1093 
3 16.0604 -13.1682 
1 15.5069 -12.355 
1 -15.468 -11.9153 
3 -16.0905 -11.1004 
1 -14.9694 -10.9671 
1 -14.3755 -11.8791 
3 -14.0405 -11.0241 
1 -13.324 -11.7227 
1 -12.2083 -11.6727 
3 -12.9513 -10.8595 
1 -11.1776 -11.9688 
3 -11.0923 -10.9983 
1 -10.1922 -11.5274 
3 -8.51116 -11.9686 
2 -9.29132 -11.4244 
1 -8.4764 -11.0107 
1 -7.57527 -12.1358 
2 -7.66552 -11.2591 
1 -6.80593 -11.2406 
3 -5.6664 -11.6492 
3 -4.63191 -12.0997 
1 -4.77033 -11.113 
3 -3.84684 -11.4832 
3 -2.86518 -11.7753 
3 -1.96035 -12.0972 
1 -2.12085 -11.1776 
2 -1.26472 -11.4588 
2 -0.0884825 -12.1518 
1 -0.427339 -11.1969 
1 0.627159 -11.6307 
1 1.64273 -11.8376 
3 1.389 -10.9781 
1 2.48432 -11.1057 
3 2.59304 -12.0842 
3 3.40143 -11.4582 
3 4.33786 -11.5038 
2 4.88712 -10.8488 
1 5.38036 -11.5853 
2 6.19865 -11.9107 
1 6.4927 -11.062 
3 7.03827 -11.8513 
1 7.70751 -11.1793 
2 7.92787 -12.0148 
1 8.6834 -11.5857 
3 9.57889 -11.4569 
2 10.3678 -11.7688 
1 10.4997 -10.8656 
1 11.2369 -11.725 
3 11.479 -10.8332 
2 12.1811 -11.7781 
3 13.04 -11.677 
1 12.4503 -10.9015 
2 13.3928 -10.7713 
1 13.984 -11.5163 
3 14.9668 -11.5672 
3 16.4073 -12.0861 
1 15.8704 -11.3218 
1 -15.7781 -10.1888 
3 -16.3007 -9.42947 
3 -14.728 -10.1181 
1 -13.7418 -10.1859 
2 -12.7095 -10.0614 
1 -11.974 -10.6253 
2 -11.1979 -10.0892 
1 -11.9928 -9.57501 
1 -10.2779 -10.3594 
3 -9.29855 -10.4882 
2 -9.81046 -9.58273 
2 -8.37072 -10.1265 
1 -8.96942 -9.49693 
1 -7.95333 -9.36753 
1 -7.52775 -10.4162 
2 -6.60466 -10.3767 
1 -6.9112 -9.55192 
1 -5.77938 -10.7227 
3 -5.91502 -9.72099 
1 -5.00729 -9.96377 
3 -4.04502 -10.337 
2 -4.22605 -9.44561 
1 -3.12608 -10.6859 
2 -3.24401 -9.80335 
3 -2.32428 -10.1579 
1 -1.43129 -9.68114 
3 -1.31049 -10.557 
1 -0.465771 -10.1067 
1 0.508389 -10.5432 
3 0.369527 -9.53469 
2 1.20534 -10.0729 
1 2.06954 -10.0291 
3 3.03527 -10.3588 
1 3.05114 -9.38704 
2 3.88674 -9.8049 
1 3.99348 -10.6718 
1 4.77685 -9.92171 
3 5.66086 -10.5086 
2 6.40708 -10.1383 
1 5.77255 -9.56627 
3 7.21441 -10.4003 
1 6.95929 -9.47248 
1 7.94732 -9.81761 
3 8.49116 -10.6515 
2 8.83172 -9.80873 
1 9.4733 -10.4886 
2 10.1648 -10.0025 
1 9.56725 -9.35985 
2 11.9659 -10.1267 
1 11.1472 -9.93429 
3 12.8173 -10.0234 
1 13.7145 -9.93529 
3 14.3208 -10.5992 
1 14.9363 -9.87733 
2 14.305 -9.30002 
2 15.146 -10.7149 
1 15.9895 -10.2484 
2 15.7305 -9.35586 
1 -15.3752 -9.18536 
1 -15.7935 -8.15023 
2 -14.8932 -8.42542 
1 -14.1435 -9.07812 
1 -14.2016 -7.93617 
1 -13.0944 -9.29256 
3 -13.3449 -8.38381 
3 -12.2927 -8.64573 
2 -11.4115 -8.9087 
3 -10.7293 -8.32684 
1 -11.6221 -7.98913 
1 -10.6752 -9.28141 
1 -9.61062 -8.64634 
2 -8.64818 -8.68504 
3 -8.95917 -7.89624 
1 -7.90936 -8.1163 
2 -7.30577 -8.80034 
1 -6.81904 -8.12581 
2 -6.32923 -8.85194 
1 -5.40372 -8.91549 
3 -5.85193 -8.07599 
2 -5.01307 -8.06046 
1 -4.30178 -8.55735 
3 -3.40167 -8.8979 
1 -2.50528 -9.11796 
2 -3.52428 -8.03028 
3 -2.64514 -8.13511 
3 -1.63775 -8.72758 
1 -0.762886 -8.18578 
3 -0.676191 -9.16867 
1 0.251302 -8.57255 
1 1.28539 -9.22002 
1 1.95986 -8.2837 
3 1.04377 -8.08334 
2 2.15555 -9.14062 
3 2.93157 -8.32354 
1 3.9205 -8.79099 
2 4.46754 -8.10256 
1 5.0606 -8.75048 
1 6.09232 -8.4668 
3 5.34413 -7.88662 
2 7.77461 -8.96275 
1 7.1302 -8.42876 
1 8.64682 -8.82979 
3 8.08312 -8.04233 
2 8.97402 -7.96337 
3 10.4936 -9.12742 
1 9.80306 -8.29318 
1 10.8811 -8.23531 
2 11.3606 -9.00727 
1 11.907 -8.21587 
1 12.2658 -9.27551 
2 13.2239 -9.24014 
3 12.8754 -8.44458 
1 13.8324 -8.56103 
1 15.0185 -8.85163 
1 16.1056 -8.58841 
2 15.4308 -8.06773 
1 -15.8397 -7.01979 
2 -15.1147 -6.5443 
3 -15.0043 -7.46965 
1 -14.2368 -6.82851 
3 -13.4374 -7.36652 
2 -12.6143 -7.76684 
1 -12.6332 -6.89366 
2 -13.4152 -6.49555 
3 -11.6775 -7.07279 
2 -9.89829 -7.78651 
1 -10.6993 -7.36273 
1 -9.44456 -6.99266 
3 -10.2425 -6.48594 
1 -8.24668 -7.07033 
3 -7.23994 -7.26876 
1 -6.70223 -6.51077 
2 -6.21907 -7.2732 
1 -5.29796 -7.20973 
3 -4.28674 -7.53758 
1 -3.39224 -7.17222 
2 -2.53856 -7.22169 
1 -1.77795 -7.70936 
1 -0.854048 -7.13895 
1 -1.82342 -6.62402 
3 0.00756386 -7.54131 
2 0.0442081 -6.6703 
1 0.823915 -7.17464 
2 1.66024 -7.45948 
1 1.83606 -6.58472 
1 2.6138 -7.35853 
1 3.67453 -7.69531 
1 4.63295 -7.09138 
3 3.59072 -6.73757 
1 5.70324 -6.94042 
3 6.55064 -7.66301 
1 7.43348 -7.38738 
1 6.66845 -6.57963 
3 7.64005 -6.43835 
1 8.55734 -7.12488 
2 9.2956 -6.52111 
3 9.52424 -7.34332 
2 10.3597 -7.5625 
1 10.1994 -6.66347 
1 11.1822 -7.20842 
2 12.0421 -7.3255 
1 11.9759 -6.47739 
1 12.8498 -7.40189 
2 12.9262 -6.54223 
2 13.6978 -7.7174 
1 14.5807 -7.75865 
1 13.8155 -6.80343 
2 14.7392 -6.84655 
3 16.3201 -7.65 
1 15.5276 -7.19507 
2 16.2459 -6.57472 
3 -15.9151 -6.08881 
1 -15.0539 -5.70914 
2 -15.8332 -5.24115 
1 -13.9291 -5.80584 
2 -14.378 -5.13466 
1 -12.8293 -5.81418 
2 -12.0361 -6.27954 
1 -11.1458 -6.32597 
2 -10.9062 -5.51555 
1 -11.7973 -5.39467 
1 -10.058 -5.53331 
2 -9.34153 -6.12241 
1 -8.42067 -6.00127 
3 -9.08269 -5.2527 
2 -8.17726 -5.1142 
2 -7.61548 -6.40928 
1 -7.38247 -5.55612 
2 -5.80705 -6.41313 
3 -6.38408 -5.58876 
1 -5.37845 -5.58643 
3 -4.79295 -6.41278 
2 -4.49287 -5.51762 
1 -3.86954 -6.20675 
3 -2.84782 -6.38162 
1 -3.02981 -5.35089 
3 -2.13873 -5.67476 
1 -1.41688 -5.09576 
1 -0.689376 -6.14129 
3 0.320434 -5.80819 
3 -0.413603 -5.16139 
2 1.05547 -6.26119 
1 1.26747 -5.43365 
1 2.40828 -5.66718 
2 2.77977 -6.43598 
3 3.34479 -5.75563 
1 4.28742 -6.04299 
3 4.98336 -5.39106 
2 5.10639 -6.34107 
1 5.85948 -5.7802 
2 6.77345 -5.66438 
1 7.58104 -5.37759 
1 8.57409 -6.03432 
1 9.54345 -5.65966 
3 10.5116 -5.55057 
2 10.9983 -6.28561 
1 11.4522 -5.48374 
3 12.4765 -5.65089 
1 13.3768 -5.7956 
1 14.5081 -5.97557 
3 14.0329 -5.12948 
3 15.3903 -6.2009 
1 16.1597 -5.5588 
1 15.1595 -5.17078 
1 -16.0133 -4.34624 
3 -15.1048 -4.68137 
1 -15.0829 -3.73347 
1 -14.0962 -4.24793 
3 -13.4816 -4.99634 
3 -12.4851 -4.78955 
2 -13.1684 -4.18548 
1 -12.3902 -3.84878 
2 -11.6978 -4.45229 
1 -10.8379 -4.6585 
1 -11.3536 -3.68461 
1 -9.78244 -4.42343 
3 -10.3637 -3.67395 
1 -8.68322 -4.32136 
3 -9.28772 -3.60653 
1 -7.55831 -4.43943 
2 -6.78602 -4.82015 
2 -7.36107 -3.5857 
1 -6.48049 -3.93205 
3 -5.90029 -4.78028 
2 -5.57997 -4.00413 
3 -4.9211 -4.70254 
1 -3.99603 -4.77163 
1 -4.72743 -3.80095 
2 -3.83978 -3.77802 
3 -3.14209 -4.3982 
2 -2.33858 -4.8352 
3 -2.14815 -4.00156 
3 -1.13904 -4.20221 
1 -0.0906732 -4.25589 
2 0.41378 -4.91552 
1 1.01262 -4.25289 
3 1.95039 -4.72369 
2 1.78263 -3.80391 
3 2.96158 -4.79965 
1 2.69682 -3.88913 
1 3.99126 -4.98674 
1 4.79835 -4.38566 
3 3.70498 -4.04001 
2 5.65519 -4.88316 
2 5.24011 -3.58698 
3 5.98519 -4.0747 
1 6.57945 -4.86642 
3 7.42155 -4.35765 
2 6.82284 -3.73106 
1 8.51886 -4.89948 
2 8.23851 -4.03519 
1 9.0816 -3.98981 
2 9.42966 -4.82502 
1 10.2819 -4.5168 
2 9.90396 -3.70274 
3 11.2893 -4.48074 
1 10.7318 -3.60666 
1 11.7985 -3.6482 
1 12.2246 -4.76237 
2 13.1119 -4.94131 
3 12.793 -4.02487 
1 13.6774 -4.25379 
2 14.6077 -4.49508 
3 14.452 -3.61734 
3 15.91 -4.60134 
1 15.3049 -3.88297 
2 16.2036 -3.73345 
3 -15.929 -3.27741 
2 -15.9758 -2.47066 
2 -14.2751 -3.36838 
3 -15.0038 -2.73507 
3 -13.9557 -2.59193 
1 -13.4029 -3.31391 
1 -12.955 -2.32003 
1 -11.9285 -2.8023 
3 -10.9494 -2.78314 
1 -9.93597 -2.8774 
3 -8.27001 -3.45895 
1 -8.85896 -2.70453 
3 -6.65299 -3.02361 
1 -7.55223 -2.59432 
1 -5.73257 -3.1069 
3 -5.52688 -2.1723 
2 -4.8732 -2.84753 
1 -3.94116 -2.86812 
3 -2.94521 -3.38357 
1 -2.20327 -2.86895 
2 -3.12954 -2.50509 
2 -1.50694 -3.35944 
1 -0.976248 -2.54673 
3 -0.55315 -3.40542 
2 0.341685 -3.52284 
1 0.150259 -2.57911 
1 1.26067 -3.12023 
3 1.0267 -2.21058 
1 1.98767 -2.15361 
3 2.24306 -3.04244 
1 3.32062 -3.05071 
2 2.81036 -2.3799 
1 4.34236 -3.41438 
2 4.13877 -2.57461 
3 5.02761 -2.74453 
1 6.05212 -3.16272 
1 7.60173 -3.39924 
1 6.93128 -2.58874 
2 7.78012 -2.50003 
3 8.52175 -3.17393 
1 8.58082 -2.16024 
1 9.40311 -2.86093 
3 10.4498 -2.66906 
2 11.3342 -2.90966 
2 12.6224 -3.19519 
3 13.5222 -3.31031 
1 12.1812 -2.45446 
3 13.1452 -2.42067 
3 14.1266 -2.47768 
1 15.0302 -2.7988 
1 16.1071 -2.87604 
3 -15.5255 -1.63318 
1 -14.5805 -1.86019 
2 -13.6556 -1.74044 
2 -14.9096 -1.06317 
1 -14.0151 -0.895538 
2 -12.2117 -1.84739 
1 -12.8612 -1.27466 
1 -11.3115 -1.86723 
3 -11.9155 -1.05261 
2 -10.9839 -0.894189 
2 -10.4361 -2.11525 
3 -9.54811 -1.98331 
1 -10.2082 -1.30194 
3 -8.23278 -1.87133 
1 -8.94849 -1.2124 
2 -7.31689 -1.78465 
1 -6.51975 -2.02937 
1 -7.71147 -1.0237 
3 -6.76957 -1.11065 
2 -5.92074 -1.35111 
1 -5.04966 -1.19322 
3 -4.48382 -2.05476 
1 -3.6494 -1.77004 
3 -4.09556 -0.861268 
3 -2.61832 -1.80928 
1 -3.0444 -0.816822 
2 -1.74316 -1.99569 
3 -0.942945 -1.51538 
3 -1.88865 -1.14777 
2 -0.0890654 -1.76273 
3 -0.152803 -0.863926 
1 0.668715 -1.33414 
2 1.53559 -1.4292 
3 2.66807 -1.47328 
1 3.53842 -1.85106 
1 4.63216 -1.83028 
2 3.99057 -1.09076 
3 4.85799 -0.840887 
1 5.61654 -2.07308 
2 5.77779 -1.15862 
3 6.5481 -1.72556 
1 7.62363 -1.62626 
1 6.56545 -0.735698 
1 9.21157 -1.3658 
2 8.36286 -1.21678 
2 9.78337 -2.05436 
1 10.2646 -1.35511 
1 11.1537 -2.09229 
2 11.9921 -1.61249 
3 11.2434 -1.03259 
1 12.1561 -0.763597 
1 12.8588 -1.55429 
2 13.0201 -0.727327 
2 13.7312 -1.67254 
1 14.6381 -1.66481 
1 13.8823 -0.822112 
2 14.7538 -0.764615 
1 16.3661 -1.69067 
2 15.4976 -2.09076 
3 15.5176 -1.2203 
1 -15.7507 -0.688134 
2 -15.6515 0.208315 
3 -14.8156 -0.188848 
1 -14.8951 0.71002 
1 -13.8868 0.235713 
3 -13.158 -0.395252 
2 -12.3268 -0.256144 
1 -12.8039 0.482989 
1 -11.4789 -0.183387 
2 -10.9537 0.529263 
1 -10.4143 -0.182153 
2 -9.6033 -0.691191 
1 -9.36305 0.0774184 
3 -8.41257 -0.340232 
1 -8.12406 0.574998 
2 -7.56508 -0.127858 
1 -6.71038 -0.186329 
3 -7.13928 0.636623 
3 -5.77467 -0.442978 
2 -6.1191 0.453543 
1 -5.21339 0.439611 
2 -4.90291 -0.367284 
1 -4.10057 0.202467 
1 -3.03573 0.2324 
1 -2.03575 -0.227461 
1 -1.04156 -0.562189 
2 -2.02822 0.611327 
1 -1.11979 0.52686 
2 -0.404753 -0.00687712 
1 0.45185 -0.148375 
2 1.17429 -0.591222 
1 2.03784 -0.704302 
2 0.882515 0.643571 
1 1.62959 0.266422 
1 3.15994 -0.619669 
2 2.50082 0.0544029 
1 3.29973 0.572533 
1 4.10146 -0.135092 
2 4.90164 0.187207 
1 5.66543 -0.219328 
2 6.35125 0.230753 
3 7.63539 -0.630977 
1 7.18783 0.243213 
1 8.8735 -0.275605 
3 8.02553 0.26369 
2 8.94319 0.571407 
2 9.74304 -0.56278 
1 10.566 -0.222779 
3 9.72707 0.325605 
2 10.5625 0.657367 
2 11.5716 -0.127142 
1 12.4169 0.267026 
1 13.4595 0.192471 
3 14.3896 0.10812 
2 16.2091 -0.608013 
1 15.3637 -0.192474 
1 16.345 0.347635 
3 -15.8112 1.06201 
1 -16.1789 1.93417 
1 -15.1154 1.81509 
2 -14.3088 1.42213 
1 -13.4485 1.35391 
2 -12.5547 1.38432 
1 -11.7439 0.93451 
3 -11.0207 1.46395 
1 -11.9284 1.98883 
3 -10.1213 0.747952 
3 -9.90433 1.72779 
1 -9.05836 1.10409 
3 -8.97628 2.05627 
2 -8.30004 1.49919 
1 -7.44912 1.55385 
1 -6.38185 1.26488 
1 -5.34226 1.46087 
2 -4.47815 0.965156 
3 -3.58372 1.06016 
3 -4.51185 1.89049 
1 -2.66742 1.24488 
1 -3.4773 2.00339 
3 -1.70153 1.43825 
2 -0.852361 1.38748 
1 -0.0344332 0.77503 
1 -0.301439 2.06746 
3 0.500271 1.61641 
1 1.40409 1.33442 
3 2.39839 0.932325 
1 2.41374 1.85922 
2 3.16645 1.41917 
3 4.31241 0.87146 
1 3.96303 1.78654 
2 4.88841 1.47554 
1 5.47221 0.855239 
3 5.72714 1.75812 
1 6.49603 1.15093 
2 7.45662 1.03377 
1 7.52352 1.90389 
1 8.36066 1.18459 
3 8.77989 2.03736 
1 9.43746 1.28262 
1 10.558 1.54252 
1 11.4429 0.796966 
2 12.1431 1.32119 
1 11.5324 1.99445 
1 12.9896 1.14617 
1 12.6184 2.14107 
3 13.5819 1.87206 
1 14.0392 1.08362 
3 14.6832 1.83652 
1 15.1644 0.863696 
2 16.2079 1.26921 
1 15.6341 1.9778 
3 -15.9396 2.91517 
1 -14.0667 2.3323 
1 -14.9588 2.93614 
3 -14.0291 3.35339 
3 -12.8841 2.19702 
1 -13.1524 3.06599 
2 -12.3069 2.85864 
1 -11.4426 3.01488 
1 -10.6826 2.2915 
2 -10.5228 3.11156 
1 -9.67043 2.7432 
1 -8.0564 2.39957 
2 -8.75964 2.86114 
3 -8.05902 3.43079 
3 -6.68806 2.16404 
2 -7.22099 2.83312 
2 -5.84744 2.16486 
1 -5.1061 2.66232 
1 -6.20913 3.02729 
2 -5.47492 3.53761 
3 -4.06506 2.77304 
3 -2.53419 2.30345 
2 -3.17952 2.86416 
1 -2.33616 3.24277 
1 -1.41098 2.36611 
2 -1.4172 3.26983 
3 -0.629669 2.95963 
2 -0.01434 3.56945 
1 0.508272 2.80041 
2 1.53461 2.17303 
3 1.51281 3.03828 
2 2.36161 2.71555 
3 3.23679 2.32033 
1 2.38268 3.57374 
1 3.51362 3.32161 
2 4.07441 2.6775 
1 4.90245 2.3292 
3 4.72147 3.35028 
2 5.77499 2.76102 
1 6.50924 2.26212 
3 6.5484 3.23623 
2 7.25522 2.79295 
1 8.11844 2.81659 
3 9.0255 3.13177 
1 9.72788 2.33304 
3 10.6152 2.5686 
1 9.99661 3.34258 
3 10.9261 3.5689 
3 11.641 2.91402 
2 12.4744 3.09906 
3 13.2827 2.83191 
1 14.2406 2.68968 
2 13.8349 3.50972 
1 14.8058 3.57004 
2 15.1107 2.69828 
1 15.9534 2.99511 
2 -15.5662 3.78228 
3 -16.4043 3.73151 
1 -15.8727 4.6098 
1 -14.7163 3.98007 
3 -14.9191 4.85527 
2 -14.0348 4.61534 
1 -13.3889 4.0668 
1 -12.2483 3.70799 
2 -12.5921 4.5432 
3 -11.0104 3.8855 
1 -11.6725 4.57496 
1 -10.0816 3.82284 
1 -10.5386 4.85394 
3 -9.52798 4.58055 
3 -9.1601 3.65862 
1 -8.58188 4.37309 
1 -7.03076 3.6742 
2 -7.66633 4.25221 
3 -6.83615 4.78725 
3 -6.13089 4.04861 
2 -5.96072 4.89413 
1 -5.18453 4.45444 
1 -4.58669 3.58948 
3 -4.23189 4.53731 
1 -3.46229 3.63497 
2 -2.64471 4.06929 
1 -3.28771 4.65356 
1 -0.847691 3.94174 
3 -1.74797 4.185 
2 -1.11507 4.76323 
1 0.0749153 4.4696 
3 0.84949 3.82466 
1 1.09957 4.77305 
2 1.69566 4.11489 
1 2.40687 4.61652 
2 3.12693 4.15284 
1 3.41711 4.97962 
3 4.01767 4.20157 
2 4.94337 4.21211 
1 4.50254 5.00578 
1 5.63517 3.67586 
1 5.56321 4.93848 
1 7.45586 3.67682 
1 6.44007 4.26053 
2 7.20718 4.57586 
2 8.31883 3.72988 
1 9.14741 4.03897 
1 8.18683 4.58689 
3 9.33196 4.93782 
1 10.221 4.4431 
1 11.8676 3.91519 
2 11.1865 4.51634 
3 11.9885 4.84015 
1 13.0175 3.79868 
1 13.0592 4.85424 
1 14.0512 4.3869 
2 15.6633 3.79329 
3 15.0349 4.47767 
1 16.0159 4.62463 
2 -15.5499 5.48448 
3 -16.4435 5.49073 
1 -15.9736 6.34154 
1 -14.1223 5.43914 
1 -14.9276 6.12336 
2 -13.7003 6.2565 
3 -13.264 5.12071 
3 -12.1592 5.37026 
1 -12.8084 6.06465 
2 -11.2734 5.32956 
1 -11.637 6.24662 
1 -10.6561 5.99441 
1 -9.63291 5.52004 
3 -8.61614 5.36345 
3 -8.86817 6.38534 
2 -8.03306 6.01561 
1 -7.66441 5.1782 
3 -7.19263 6.09303 
1 -6.23682 5.70583 
3 -5.27949 5.51903 
1 -4.23022 5.46262 
1 -2.24719 5.03927 
1 -3.1359 5.69996 
2 -2.26386 5.94109 
3 -1.39243 5.57804 
2 -0.760311 6.25467 
1 -0.452588 5.46709 
2 0.41137 5.28992 
3 0.203834 6.16222 
3 1.86346 5.35875 
1 1.11878 5.84613 
1 2.13268 6.30577 
2 2.70904 5.51575 
1 3.28345 6.2358 
2 3.9552 5.71866 
3 5.07997 5.79755 
1 6.00334 6.27121 
1 6.6113 5.31524 
3 7.59769 5.37492 
2 7.02331 6.03794 
3 7.84247 6.40244 
1 8.58781 5.6081 
2 10.2329 5.35638 
3 9.556 5.89393 
1 10.4428 6.23791 
1 11.1355 5.43269 
3 11.4155 6.36925 
1 12.2263 5.72929 
1 13.2269 5.92788 
2 13.8343 5.24829 
1 14.7221 5.38271 
3 14.1342 6.12856 
2 14.9376 6.36209 
2 15.5805 5.42375 
1 15.8352 6.34911 
1 -15.3265 7.18027 
3 -14.3646 6.96433 
2 -14.7341 7.76547 
1 -13.669 7.67818 
2 -12.3424 6.83699 
3 -13.1649 6.92358 
1 -12.5222 7.73797 
1 -11.5906 7.26863 
3 -10.8892 7.84006 
1 -9.78697 6.58218 
3 -10.6814 6.90722 
3 -9.8743 7.50668 
1 -8.88005 7.38911 
1 -7.9412 6.87701 
2 -6.44947 6.58713 
2 -7.81239 7.78276 
3 -6.98391 7.2787 
3 -5.61444 6.44854 
1 -6.03513 7.37343 
2 -5.15452 7.21834 
1 -4.64771 6.44342 
3 -3.69053 6.53398 
3 -4.29944 7.30244 
1 -2.72293 6.68592 
1 -3.37575 7.55796 
1 -1.63877 6.56586 
1 -2.09089 7.57446 
3 -1.10483 7.34864 
1 -0.281265 7.00431 
2 0.23948 7.66897 
1 0.779161 6.92425 
3 1.09702 7.79131 
2 1.66596 7.06556 
1 2.06664 7.85704 
3 2.63619 7.09922 
1 4.36266 6.48455 
3 3.70106 7.13842 
1 4.68114 7.52398 
2 5.22661 6.73606 
1 5.84932 7.41767 
3 6.81025 6.87661 
3 6.79566 7.82623 
2 7.55833 7.28235 
2 8.79861 6.4484 
3 8.40003 7.2739 
2 9.2152 7.66303 
1 9.56888 6.88996 
3 10.0776 7.70154 
1 10.9153 7.30321 
2 11.8591 7.15999 
3 12.5288 6.67007 
2 13.5269 6.74711 
3 12.533 7.70328 
1 13.4956 7.67695 
1 14.4447 7.12138 
3 16.3862 7.11382 
3 15.4172 7.17305 
1 -16.0549 7.96723 
2 -15.8969 8.86911 
1 -15.1126 8.52551 
3 -14.1533 8.53243 
2 -13.138 8.36552 
3 -13.2725 9.25 
1 -12.342 8.85024 
2 -11.7573 8.15278 
1 -11.1662 8.88318 
1 -10.1649 8.46579 
2 -9.27128 8.16839 
1 -9.27342 9.08202 
1 -8.36375 8.41865 
1 -7.09664 8.20895 
2 -7.59712 8.8897 
3 -6.70051 9.02503 
1 -5.93713 8.48615 
2 -5.15323 8.95762 
1 -4.88497 8.13973 
2 -4.03802 8.15815 
1 -4.29994 9.04036 
2 -2.69031 8.20414 
1 -3.28402 8.83904 
2 -1.45936 8.22621 
1 -2.13124 8.86248 
3 -1.18953 9.03575 
1 -0.59662 8.16994 
2 -0.275075 8.96815 
1 0.610688 8.61263 
2 1.51374 8.59504 
1 2.29307 8.95535 
3 3.03706 8.32396 
2 3.88303 8.01853 
1 3.78811 8.9715 
3 4.57769 8.48188 
2 5.37005 8.21699 
3 5.42455 9.18904 
1 6.16838 8.5255 
1 7.70865 8.10426 
2 7.10213 8.73676 
1 7.83166 9.2416 
3 8.68703 8.31175 
1 9.61572 8.49495 
3 11.5875 8.0269 
1 10.7366 8.38861 
2 11.5676 8.89768 
1 12.3413 8.62198 
3 13.3051 8.60032 
2 14.2629 7.9756 
1 14.2062 8.85372 
1 15.1367 8.12629 
2 15.9536 7.90849 
2 15.1705 9.00671 
3 16.0457 8.78304 
3 -15.1733 9.48374 
1 -15.6715 10.285 
3 -16.3538 9.62039 
1 -14.2115 9.59866 
3 -14.6855 10.4439 
3 -13.52 10.2567 
1 -12.594 9.89954 
2 -11.7943 9.52759 
3 -11.8927 10.4874 
1 -11.0439 10.057 
2 -10.3484 9.36163 
1 -9.92072 10.0651 
3 -8.38473 9.35364 
2 -9.02893 10.0123 
3 -8.30944 10.4823 
1 -7.46267 9.74043 
2 -7.45702 10.5908 
1 -6.56905 10.3625 
1 -5.76084 9.58179 
2 -5.5967 10.4775 
1 -4.70227 10.1081 
1 -3.66541 9.89928 
2 -2.97785 10.5002 
3 -2.66763 9.66971 
1 -1.68352 9.85 
3 -1.07541 10.6183 
1 -0.595371 9.72532 
3 -0.0237991 10.5783 
3 0.417635 9.62303 
1 1.33631 9.55308 
2 0.849994 10.4351 
1 1.71013 10.5174 
3 3.09904 9.5777 
2 2.26399 9.85871 
1 2.84958 10.5938 
2 4.51872 9.42509 
1 3.92061 10.1801 
1 5.05376 10.1067 
2 5.99361 10.0021 
1 6.66477 9.49549 
1 6.72029 10.5385 
2 7.49914 10.059 
1 8.87305 9.32251 
3 8.33996 10.0583 
3 9.89587 9.41021 
1 9.30311 10.3277 
2 10.2752 10.2356 
1 10.8989 9.49807 
1 11.9679 9.72192 
3 11.1716 10.4041 
2 12.8174 9.35839 
2 12.2394 10.5566 
1 12.9902 10.1991 
3 13.6905 9.64047 
1 14.0619 10.6095 
3 14.6512 9.71169 
2 15.061 10.5818 
2 16.2459 10.4484 
1 15.5994 9.79403 
1 -15.9464 12.114 
1 -15.1154 11.3385 
3 -16.0727 11.1611 
1 -13.9392 11.0996 
2 -14.3181 11.8795 
1 -12.8595 11.0276 
3 -13.3572 11.8465 
1 -12.4511 12.1277 
2 -12.0739 11.3566 
1 -11.1636 11.1136 
3 -11.5068 12.0454 
3 -10.2213 10.9814 
2 -10.6669 11.8016 
1 -9.74551 11.9117 
1 -9.22788 10.8625 
3 -8.77308 11.6702 
1 -7.86169 11.3336 
3 -6.94839 11.2921 
2 -6.40423 12.0277 
1 -5.89342 11.3246 
1 -3.87632 10.9026 
3 -4.85512 11.0858 
1 -4.56446 11.9908 
2 -3.69718 11.8634 
1 -2.91229 11.3417 
3 -2.05395 10.8288 
3 -2.11876 11.897 
2 -1.37571 11.5056 
1 -0.503883 11.4381 
2 0.38897 11.5111 
3 1.22532 11.3151 
3 1.89104 12.1026 
2 2.14342 11.2739 
1 2.98773 11.8685 
3 3.64035 11.1373 
1 4.64486 11.058 
1 4.22349 12.0676 
1 5.72325 10.887 
1 5.27824 11.89 
2 6.14394 11.741 
1 7.7692 10.9152 
3 7.00058 11.488 
2 7.61178 12.1049 
2 8.63409 10.884 
3 8.40447 11.7095 
3 9.51426 11.2598 
1 10.5028 11.07 
1 10.009 12.0841 
3 10.976 11.9552 
1 11.6559 11.2029 
3 12.0626 12.0986 
1 12.8124 11.2521 
2 12.9332 12.134 
3 13.7102 11.6485 
3 14.6847 11.3837 
1 15.6914 11.157 
2 16.1375 11.9563 
2 -15.8223 12.9633 
3 -15.0359 12.4134 
1 -14.9516 13.3156 
1 -14.0688 12.7265 
2 -13.1462 12.6975 
1 -13.2564 13.5862 
3 -12.3851 13.1191 
2 -11.576 12.8833 
2 -10.7368 13.5132 
2 -9.77579 12.7521 
1 -10.7166 12.6642 
2 -8.09765 12.1695 
1 -8.96206 12.6016 
1 -7.97858 13.0487 
3 -7.25505 12.367 
3 -7.17748 13.5022 
1 -6.46027 12.8994 
3 -5.59097 12.3788 
2 -5.61393 13.2937 
3 -4.74778 12.9515 
1 -3.78777 12.8449 
3 -2.98618 12.3696 
2 -2.97804 13.2251 
1 -2.13748 12.8096 
1 -1.16534 12.4591 
3 -0.151891 12.3079 
1 -0.457501 13.2909 
3 0.449177 13.1851 
1 0.855552 12.2521 
3 1.51933 13.0679 
1 2.47022 12.845 
1 3.52584 12.9839 
1 4.77922 12.9093 
2 5.43898 13.5332 
3 5.82491 12.7471 
1 6.544 13.5566 
1 6.73109 12.4488 
3 7.49631 12.9869 
2 9.19079 12.3056 
1 8.3359 12.6573 
1 9.28769 13.2117 
3 10.4279 13.0081 
1 11.3438 12.84 
1 12.4927 13.0169 
2 13.2824 13.3683 
2 14.4278 12.2178 
1 13.6695 12.616 
3 14.455 13.12 
1 15.2942 12.1587 
1 16.1991 12.8801 
2 15.2923 13.24 
1 -15.9697 13.8272 
1 -15.651 14.8282 
2 -14.1344 13.6179 
3 -14.8555 14.2417 
3 -13.8427 14.4547 
1 -12.9385 14.7595 
2 -12.4655 13.9508 
1 -11.5581 13.7443 
3 -11.9052 14.6588 
3 -10.8562 14.3688 
1 -9.86988 13.657 
1 -9.43647 14.7073 
1 -8.85019 13.7119 
1 -8.31549 14.7501 
2 -8.00788 13.8978 
1 -7.2729 14.4459 
1 -6.27155 14.0327 
3 -5.65176 14.7576 
1 -5.10243 13.9761 
2 -4.175 13.6613 
3 -4.30969 14.5249 
1 -3.44124 14.1184 
1 -2.53652 14.8697 
3 -2.44308 13.9167 
1 -1.48953 13.6118 
2 -1.762 14.4475 
3 -0.790366 14.2557 
1 0.156202 14.1847 
2 1.0436 13.8312 
1 1.20405 14.8066 
1 2.02754 13.9484 
2 2.07271 14.9897 
2 2.85761 13.6223 
1 2.89616 14.585 
2 4.1472 13.6049 
3 3.79188 14.3789 
1 4.81682 14.1854 
1 5.83522 14.3501 
2 6.68785 14.4157 
1 7.52561 13.9926 
3 7.35469 14.9296 
3 8.36873 13.6117 
3 9.1023 14.2402 
1 8.36667 14.8297 
1 10.0471 13.9915 
2 11.8256 13.5889 
1 10.8166 14.7976 
3 10.9926 13.8718 
3 11.8489 14.4972 
1 12.7501 14.0808 
1 13.3986 15.0162 
1 13.9044 13.9933 
1 14.5144 14.9455 
1 14.9815 14.0157 
2 16.417 14.6117 
3 15.979 13.8491 
1 15.5695 14.9446 
3 -15.4213 15.727 
1 -16.4218 15.5431 
1 -14.4733 15.1968 
2 -14.5837 16.046 
1 -13.6129 16.2862 
2 -13.6365 15.3413 
3 -12.8643 15.717 
2 -11.195 15.2079 
1 -11.9413 15.6518 
3 -11.1228 16.1366 
3 -10.2929 15.2499 
1 -10.1608 16.2139 
2 -9.44182 15.5945 
1 -8.57565 15.7933 
3 -7.60678 15.4032 
1 -7.41587 16.3375 
2 -6.5784 16.1496 
1 -6.57222 15.2563 
3 -5.7279 15.7439 
3 -4.83754 16.3677 
1 -4.79306 15.4111 
1 -3.78248 16.0476 
3 -3.47702 15.1266 
3 -2.77474 15.9114 
2 -2.0276 16.2815 
3 -1.70149 15.3661 
1 -0.715671 15.1179 
1 -1.09208 16.1506 
2 -0.303376 15.8679 
3 0.237625 15.1216 
1 0.642049 16.0143 
3 1.56374 15.7455 
2 2.32534 16.3639 
1 2.70446 15.6292 
2 3.52923 15.2118 
1 3.70606 16.0368 
1 4.37118 15.1526 
3 4.81676 16.0372 
3 5.3869 15.1471 
2 5.7893 15.9301 
1 6.38919 15.255 
2 7.1161 15.74 
3 7.99 15.6848 
2 8.89316 15.5478 
1 9.58161 15.0414 
3 10.6015 16.3475 
1 9.62593 16.1404 
2 10.3096 15.5162 
3 11.3263 15.6377 
2 12.2994 16.1266 
1 12.3336 15.2891 
1 13.154 16.1066 
2 13.9639 15.7432 
1 14.7789 16.0007 
2 15.6397 15.8302 
