3000
step:1000 columns:molecule,species,position dt:1 cell:13.57208808297453,13.57208808297453,13.57208808297453 rho:1.2000000000000004 T:2.0
1 1 7.590028 6.489191 4.922856
1 2 7.967695 6.436680 5.692105
1 3 8.281812 5.879275 4.759533
2 1 8.557558 8.531722 2.543817
2 2 9.074570 9.223764 2.236198
2 3 8.963768 8.442368 1.698382
3 1 7.713240 9.205989 4.842936
3 2 7.276725 9.548290 5.671505
3 3 8.116220 9.068694 5.695972
4 1 3.616181 9.241829 9.661350
4 2 3.549245 9.869247 8.886452
4 3 3.626218 8.840343 8.842594
5 1 4.538447 4.384109 7.593684
5 2 5.241817 3.925584 7.397657
5 3 4.444879 3.421228 7.433868
6 1 1.351466 4.665626 2.997782
6 2 1.865860 4.020241 3.257398
6 3 1.158738 3.934423 2.506214
7 1 6.616548 6.666198 1.603553
7 2 5.959877 7.075874 1.209577
7 3 5.884072 6.125140 1.339101
8 1 6.549011 3.439049 7.654018
8 2 7.258238 3.121569 8.067664
8 3 6.372600 2.867707 8.496587
9 1 5.915273 4.562473 5.965136
9 2 5.758063 5.521271 5.725607
9 3 5.128253 4.808269 5.476918
10 1 10.707636 3.793785 6.471755
10 2 10.902841 3.651099 7.303368
10 3 9.938084 3.510256 6.961822
11 1 4.453741 2.755831 8.537777
11 2 4.578102 2.266217 9.274198
11 3 4.120783 1.947532 8.419710
12 1 5.304213 12.617608 1.176454
12 2 5.879079 13.360421 1.455876
12 3 5.323117 13.338719 0.587890
13 1 9.142192 6.273283 9.060757
13 2 8.844176 6.262883 9.900752
13 3 8.819823 5.429360 9.322205
14 1 2.787653 6.785129 5.530084
14 2 2.503284 7.521087 5.924501
14 3 1.874115 7.015722 5.233597
15 1 10.935309 2.378705 5.056864
15 2 11.632114 2.685325 4.477557
15 3 11.389816 1.715766 4.607786
16 1 0.558155 5.056950 10.538605
16 2 1.029283 4.687375 9.918451
16 3 0.778806 4.140327 10.661025
17 1 10.342370 8.926066 4.116256
17 2 11.033334 8.567858 3.820548
17 3 10.308734 8.019355 4.181344
18 1 4.711980 7.028597 9.050051
18 2 4.784625 7.624384 8.382174
18 3 5.271411 6.736245 8.257345
19 1 4.426478 2.128091 0.644907
19 2 4.098768 1.278827 0.562138
19 3 4.914648 1.545827 0.079466
20 1 10.468085 11.953900 2.514024
20 2 11.206364 12.476537 2.102275
20 3 10.342920 12.558386 1.763442
21 1 8.953634 3.891408 5.353621
21 2 9.709350 3.578228 4.886892
21 3 8.765435 3.325669 4.615822
22 1 12.182233 10.058741 10.302202
22 2 12.623314 9.819079 9.547810
22 3 11.787178 9.352164 9.845884
23 1 5.139722 0.725142 1.872300
23 2 5.268618 0.969890 2.816402
23 3 5.606299 0.129399 2.476396
24 1 12.954387 5.083162 10.429673
24 2 12.991064 4.088273 10.586131
24 3 12.527538 4.786706 11.207430
25 1 8.857899 10.243293 0.798118
25 2 8.751419 10.096537 1.771849
25 3 9.097872 9.397758 1.183005
26 1 10.055504 1.610695 7.927926
26 2 10.096140 1.422819 8.812223
26 3 9.419040 0.962480 8.219072
27 1 13.001005 6.885017 12.681027
27 2 12.572572 6.781424 13.408591
27 3 12.131043 6.388000 12.505307
28 1 12.842165 9.590643 6.315027
28 2 13.047697 10.390246 5.946986
28 3 12.505252 10.347382 6.718605
29 1 10.196383 8.408601 5.138050
29 2 10.051383 9.057428 5.768929
29 3 9.705415 9.151494 4.825148
30 1 0.679103 9.849821 7.485612
30 2 1.444987 9.750888 7.951888
30 3 1.070396 9.050409 7.344275
31 1 4.579843 7.468420 12.117439
31 2 4.105425 6.722721 12.077883
31 3 4.249010 7.258155 11.199594
32 1 6.352365 1.087703 6.720059
32 2 6.962846 1.500991 6.301236
32 3 6.101545 1.101445 5.818623
33 1 13.335344 10.301115 0.539707
33 2 0.309887 10.231637 -0.155274
33 3 12.897242 10.171855 13.256912
34 1 3.727830 3.991346 12.292994
34 2 4.103485 4.365596 11.364988
34 3 3.688817 3.493504 11.475863
35 1 4.143647 8.532890 9.736904
35 2 4.519530 9.277099 9.574249
35 3 4.891989 8.520510 9.099248
36 1 6.843496 1.937115 10.588307
36 2 7.325789 2.650766 10.350268
36 3 6.446272 2.468360 9.895692
37 1 3.853220 1.488432 7.043148
37 2 4.111440 1.093848 7.846365
37 3 3.572542 0.592876 7.240684
38 1 10.521088 12.146296 9.267665
38 2 11.020401 12.668634 9.748453
38 3 11.004414 11.618397 9.791272
39 1 8.674887 11.244713 11.590909
39 2 8.390746 10.584192 12.129686
39 3 7.917565 10.810509 11.371099
40 1 8.322918 4.929524 5.025519
40 2 8.747778 4.357245 4.474469
40 3 7.978285 3.909347 5.015054
41 1 8.204674 4.351830 3.698921
41 2 8.169113 5.033917 3.036183
41 3 7.502487 4.311281 3.136283
42 1 5.908765 4.473812 7.768556
42 2 5.267273 4.388359 8.376054
42 3 5.158517 5.124061 7.786444
43 1 4.858630 13.227284 2.633672
43 2 5.328109 12.780975 3.260472
43 3 4.327198 12.514419 2.890941
44 1 8.627266 3.465056 12.590502
44 2 9.140193 4.196180 12.651690
44 3 7.972146 4.230576 12.698584
45 1 9.167442 6.414340 6.144922
45 2 9.323316 6.325660 7.002740
45 3 9.127499 5.520312 6.437241
46 1 2.304946 12.085148 1.209302
46 2 2.587911 11.248349 0.943950
46 3 1.644001 11.447643 0.736367
47 1 12.580476 3.681446 11.276456
47 2 12.084108 4.160316 11.909835
47 3 12.643709 3.438395 12.163281
48 1 8.016601 4.913713 10.710731
48 2 8.801309 5.301683 10.309028
48 3 8.203645 4.602108 9.870856
49 1 5.378227 2.868795 9.046645
49 2 5.422198 3.800286 9.050009
49 3 5.314895 3.262798 8.188798
50 1 10.788659 1.581087 7.246904
50 2 11.147624 0.858832 6.851192
50 3 10.271322 0.743505 7.250632
51 1 6.830834 4.029432 13.569014
51 2 6.680630 3.802192 0.886638
51 3 6.224529 4.570732 0.455574
52 1 3.264715 2.230623 6.823416
52 2 2.685831 2.520681 7.479476
52 3 3.261995 1.766105 7.776424
53 1 2.955686 2.964949 13.410668
53 2 2.257644 3.376444 0.315155
53 3 2.188819 2.984551 12.932854
54 1 13.548295 5.928264 0.871917
54 2 0.753343 5.988280 0.434536
54 3 -0.005352 6.430502 13.622803
55 1 10.545799 7.010854 0.587318
55 2 10.842193 6.196731 0.438794
55 3 9.894068 6.424472 0.952000
56 1 5.188743 3.800386 5.922649
56 2 5.817914 3.821423 6.559092
56 3 4.986795 3.200850 6.591251
57 1 5.250028 0.281046 9.232754
57 2 5.596202 13.278454 9.818590
57 3 5.732476 13.158061 8.749329
58 1 1.429985 11.173499 13.340888
58 2 1.943413 11.656337 12.817674
58 3 1.858067 10.679550 12.646331
59 1 9.185719 11.522408 3.232089
59 2 8.621258 11.329171 3.869375
59 3 9.382390 10.748565 3.677969
60 1 0.267848 9.248542 10.934285
60 2 0.291514 9.197524 10.048371
60 3 12.983892 9.403811 10.567194
61 1 2.656223 1.912136 11.422469
61 2 2.579603 2.392775 12.230664
61 3 2.084540 1.462533 12.145415
62 1 7.913151 11.269436 8.463656
62 2 8.315889 11.474541 9.179981
62 3 7.676352 10.690832 9.133448
63 1 9.363332 2.476635 3.358217
63 2 10.131924 3.020936 3.261073
63 3 10.026683 2.293386 2.666865
64 1 8.287910 6.539574 0.375130
64 2 8.792423 6.387204 1.148705
64 3 8.461225 7.269470 0.987613
65 1 -0.310686 5.719059 3.925662
65 2 13.080653 6.364353 4.417585
65 3 13.130977 5.418945 4.751709
66 1 9.095886 1.776771 2.429475
66 2 9.501471 1.292040 3.026887
66 3 9.858722 1.292362 2.179820
67 1 12.228231 6.578017 10.766455
67 2 12.073073 5.697670 10.969230
67 3 12.384538 5.998295 10.033423
68 1 9.875557 9.275427 10.496066
68 2 10.792482 9.257537 10.435473
68 3 10.256231 8.420534 10.229558
69 1 7.275337 10.134244 9.872020
69 2 7.680367 9.346132 10.111256
69 3 6.763098 9.362140 9.629909
70 1 10.712219 13.560880 5.339440
70 2 11.094658 13.285257 4.617137
70 3 10.329829 12.734999 4.768027
71 1 10.733719 11.870184 8.265839
71 2 11.585098 12.198914 8.261169
71 3 10.878737 12.560656 7.690443
72 1 5.938245 5.079483 3.022931
72 2 5.479799 5.815648 3.189216
72 3 5.048441 5.042349 2.753215
73 1 6.062154 5.776338 9.979912
73 2 6.400447 5.276955 10.651336
73 3 5.651130 4.985142 10.178228
74 1 9.506343 11.021444 6.212280
74 2 9.880554 10.306830 6.667250
74 3 9.095787 10.718284 7.071538
75 1 8.359392 0.949191 1.340306
75 2 7.874918 0.802741 2.088133
75 3 7.403202 1.039416 1.243782
76 1 11.486282 8.875447 7.171941
76 2 11.992822 9.600871 7.189973
76 3 11.935066 9.044957 6.369556
77 1 11.453333 2.499353 5.928216
77 2 10.834776 2.863386 6.586939
77 3 10.681010 3.119572 5.651905
78 1 10.228311 1.114049 6.390184
78 2 10.942588 0.711906 5.866709
78 3 10.235346 0.226659 6.236458
79 1 7.638046 11.585482 1.389470
79 2 7.994644 10.981866 2.026190
79 3 7.099174 10.856677 1.710638
80 1 7.821094 1.844446 2.802509
80 2 7.842856 2.402433 3.534824
80 3 7.049964 2.354814 2.982997
81 1 7.058389 10.930211 3.645593
81 2 7.712177 11.008452 3.030995
81 3 6.831403 11.053207 2.756572
82 1 9.259434 0.638412 0.903043
82 2 9.137702 1.392917 0.383458
82 3 8.734202 0.612670 0.128487
83 1 3.912622 11.686529 13.339431
83 2 4.715963 11.658364 13.022269
83 3 4.264409 10.884575 -0.026659
84 1 5.389736 7.173487 5.323509
84 2 5.240332 8.034353 5.344099
84 3 4.534289 7.423207 5.539276
85 1 1.178047 11.201145 4.599665
85 2 2.081267 10.983330 4.748962
85 3 1.728375 10.864590 3.850426
86 1 12.184308 8.100590 1.153977
86 2 12.929455 8.095199 0.537476
86 3 12.503167 7.289201 0.756325
87 1 12.543877 10.034823 0.867160
87 2 11.899796 10.366518 1.350541
87 3 11.738939 9.529388 0.949232
88 1 4.279733 7.346024 2.594205
88 2 3.720076 7.807402 2.069657
88 3 3.431753 6.990816 2.459812
89 1 9.412650 0.988318 11.358311
89 2 10.062156 0.486054 11.679805
89 3 9.137086 13.651693 11.477851
90 1 8.339059 8.431698 0.843241
90 2 8.714843 9.044505 0.328485
90 3 8.366505 8.225847 -0.040365
91 1 1.674213 1.574059 9.885851
91 2 2.243059 2.020995 10.446743
91 3 2.657841 1.502030 9.670338
92 1 7.090874 2.135977 8.164390
92 2 6.837421 2.053290 9.042401
92 3 6.348576 1.653514 8.274940
93 1 8.303290 8.404348 11.686955
93 2 7.543861 8.846933 11.915918
93 3 7.412775 7.976608 11.470632
94 1 7.769132 8.230620 5.098388
94 2 8.154899 7.987213 5.889175
94 3 7.961258 7.313740 5.131072
95 1 12.154608 8.295428 3.426449
95 2 12.877743 8.675495 3.913328
95 3 12.075875 8.321384 4.354926
96 1 6.172433 5.222071 1.127148
96 2 5.761374 5.211116 1.967080
96 3 5.261917 5.023926 1.188542
97 1 8.872756 0.493379 10.669239
97 2 8.760954 1.364777 10.818882
97 3 8.115345 0.677017 10.099334
98 1 4.349007 0.733505 3.720417
98 2 5.098085 1.182946 3.694035
98 3 5.105587 0.233236 3.447634
99 1 12.809160 11.877084 3.188365
99 2 13.121183 11.495511 2.464609
99 3 12.143239 11.305338 2.725389
100 1 11.718769 3.501720 11.357524
100 2 10.962890 3.721225 11.826212
100 3 10.989072 3.026356 11.070037
101 1 8.769797 12.351346 3.552450
101 2 9.571863 12.375038 3.874274
101 3 9.536070 12.485740 2.909649
102 1 6.024126 2.727955 13.222169
102 2 6.695193 3.135404 13.452988
102 3 6.608305 2.078411 13.436572
103 1 11.984753 12.986918 1.863113
103 2 12.014187 13.276325 2.745295
103 3 12.284402 12.293238 2.394251
104 1 10.827309 6.827122 13.305624
104 2 11.655859 6.692969 0.185108
104 3 11.246955 6.024547 13.125793
105 1 7.112647 9.863591 7.652401
105 2 7.696768 10.009406 8.334287
105 3 8.009768 9.764644 7.446490
106 1 2.991588 0.293191 1.860406
106 2 2.290689 0.310930 1.258851
106 3 2.693702 13.061717 1.245116
107 1 12.206183 8.093168 12.583505
107 2 12.650805 7.697852 13.146532
107 3 11.756945 7.345250 13.028717
108 1 4.189557 -0.165914 3.373092
108 2 4.573868 0.026309 4.256733
108 3 4.307649 12.691371 4.046137
109 1 6.617342 10.301419 4.277519
109 2 7.240218 10.172243 4.868250
109 3 7.022626 9.429355 4.132306
110 1 2.046024 0.878811 12.956664
110 2 2.661083 0.610355 12.397550
110 3 2.899530 1.187929 13.165496
111 1 3.010071 5.937231 2.427309
111 2 3.213299 5.057993 2.554459
111 3 2.611819 5.553963 3.208924
112 1 6.187930 4.266237 9.526564
112 2 7.063603 3.930870 9.744703
112 3 6.323808 3.423923 9.336096
113 1 2.448528 12.196838 12.057818
113 2 2.307853 13.117221 12.280584
113 3 2.365071 12.876541 11.291403
114 1 6.429056 8.918535 1.186015
114 2 5.680667 9.232860 1.663141
114 3 5.633314 9.249797 0.667254
115 1 10.569065 7.950816 0.731575
115 2 11.166399 8.054023 1.453091
115 3 10.389123 7.408236 1.478394
116 1 3.845719 2.353558 5.845852
116 2 3.267573 2.979532 6.096641
116 3 2.964769 2.090746 5.923574
117 1 13.152465 6.204588 1.623299
117 2 12.840133 6.986539 1.896720
117 3 12.297342 6.381754 1.401930
118 1 4.669505 2.099973 4.912922
118 2 4.378230 1.504069 5.485225
118 3 4.841145 1.161623 4.657780
119 1 4.872009 1.399925 10.265849
119 2 5.606275 1.935797 9.892056
119 3 4.816462 1.329806 9.392766
120 1 11.627862 3.213549 9.847795
120 2 12.170467 3.260885 10.585846
120 3 11.761012 2.424697 10.303450
121 1 9.709811 3.003445 4.098764
121 2 10.269120 3.679880 3.997129
121 3 9.330617 3.811148 3.827708
122 1 10.811741 13.632386 12.092219
122 2 10.596142 12.911134 12.614760
122 3 10.763702 12.740181 11.636871
123 1 4.425609 0.734111 2.765822
123 2 4.229700 1.513487 3.156052
123 3 3.548920 1.027583 2.578732
124 1 7.521762 5.743126 3.174161
124 2 7.671870 5.571053 2.341034
124 3 6.859201 5.080577 2.726633
125 1 4.923149 5.694430 0.327105
125 2 4.981427 6.561862 13.488204
125 3 5.257537 5.752256 12.994139
126 1 4.592997 13.036405 9.360718
126 2 3.728708 12.583641 9.265536
126 3 4.504523 12.288642 8.762900
127 1 5.003409 8.154650 12.450216
127 2 5.675920 8.312524 11.888662
127 3 4.900814 8.104306 11.409538
128 1 9.620155 7.779310 8.428189
128 2 10.543356 7.683292 8.382648
128 3 9.918583 6.957059 8.683147
129 1 6.580778 11.007002 6.069679
129 2 6.559716 10.075229 5.994776
129 3 6.206440 10.496303 5.256587
130 1 1.859320 3.236572 2.056553
130 2 2.667924 3.534577 2.213673
130 3 2.242945 3.581389 1.292884
131 1 3.123556 12.482625 10.864831
131 2 3.757554 12.693918 11.478120
131 3 3.213025 11.872860 11.606657
132 1 10.105689 5.996573 7.553982
132 2 10.460244 6.714293 7.959643
132 3 10.501842 6.659750 6.979739
133 1 0.274704 13.248951 3.091224
133 2 1.010572 12.844854 3.474497
133 3 0.143937 12.268562 3.014819
134 1 4.468860 8.586107 8.232717
134 2 4.551890 9.452567 8.644184
134 3 4.654814 9.256630 7.642071
135 1 6.598335 8.792916 10.572022
135 2 6.408321 8.443841 11.334655
135 3 6.661923 7.861638 10.540058
136 1 10.432788 6.450680 9.451426
136 2 10.308179 6.341537 10.345016
136 3 9.711500 5.867202 9.735104
137 1 4.855479 3.766529 9.990425
137 2 5.560913 3.994069 10.458535
137 3 5.437982 3.027537 10.006224
138 1 1.262390 0.724129 7.116790
138 2 1.579915 -0.020330 7.523253
138 3 0.579725 13.654015 7.222473
139 1 0.720960 6.893813 9.998224
139 2 13.828272 7.265974 10.746519
139 3 13.302552 6.787679 10.074573
140 1 9.390626 5.331142 2.430354
140 2 10.281537 5.378769 2.168992
140 3 9.600974 5.509078 1.449762
141 1 0.457780 3.536802 11.422716
141 2 0.078900 3.515379 12.223009
141 3 13.322633 2.969452 11.448060
142 1 9.418314 8.063896 11.671195
142 2 9.263053 7.189250 11.709588
142 3 8.773550 7.747944 11.164062
143 1 9.230989 3.263367 2.995443
143 2 8.569539 3.156696 3.585392
143 3 8.538322 3.877877 2.903867
144 1 6.781042 4.118607 1.723398
144 2 6.206375 4.427316 2.314685
144 3 5.887914 4.202530 1.364916
145 1 6.495037 4.326697 12.754261
145 2 7.062629 4.879653 12.228681
145 3 6.107363 4.719782 11.919129
146 1 6.155911 12.478697 1.275521
146 2 6.545367 12.903871 1.980867
146 3 5.584387 12.601431 2.091709
147 1 8.836987 7.835240 5.147360
147 2 9.226940 7.710048 5.979845
147 3 8.936245 6.870994 5.309852
148 1 1.647245 2.161404 8.061124
148 2 2.143595 2.942319 8.214528
148 3 1.343368 2.994418 7.721372
149 1 0.511093 8.360522 12.076835
149 2 13.639418 9.161269 11.878550
149 3 13.194248 8.488799 12.451219
150 1 1.492286 0.908995 10.335589
150 2 1.402164 0.771050 11.208100
150 3 2.245976 1.115728 10.799892
151 1 6.043691 4.944766 4.083817
151 2 6.829525 5.234368 3.703424
151 3 6.458590 4.360553 3.450120
152 1 6.339005 13.099754 4.623394
152 2 6.423200 0.340602 4.997201
152 3 5.737263 0.308424 4.260699
153 1 2.651644 12.718322 0.349803
153 2 3.463209 13.007605 0.465457
153 3 3.222373 12.036519 0.364086
154 1 9.323951 11.414849 12.215389
154 2 8.848512 11.035688 12.845196
154 3 9.496828 11.687463 13.084146
155 1 1.994554 0.617950 2.182410
155 2 2.359505 13.352365 2.257020
155 3 1.513042 13.405852 1.826901
156 1 9.688354 3.340703 12.883296
156 2 10.067119 3.994313 12.350803
156 3 9.484091 3.223855 11.979957
157 1 3.441738 12.514215 8.123787
157 2 4.185706 12.566049 7.647314
157 3 3.804743 11.567375 7.898147
158 1 6.534229 0.821383 0.769309
158 2 5.790369 1.153706 0.305754
158 3 6.230143 0.239293 13.700687
159 1 6.043712 10.794360 1.675073
159 2 6.228493 10.672253 0.814442
159 3 5.768931 11.591243 1.126802
160 1 12.395935 0.079259 3.541158
160 2 12.844873 0.221313 2.849245
160 3 12.846152 12.866173 3.157819
161 1 4.092259 6.456912 9.229730
161 2 4.123976 6.080465 9.972578
161 3 3.308191 6.063716 9.360698
162 1 12.303993 5.687817 4.100937
162 2 12.693424 4.947029 3.914069
162 3 12.546606 5.713750 3.211135
163 1 5.330608 3.955887 0.674171
163 2 4.856818 3.539136 -0.000375
163 3 5.817857 3.812138 13.380946
164 1 2.196760 7.012660 10.850448
164 2 3.044322 6.862916 10.602491
164 3 2.605351 7.748678 10.508406
165 1 0.150652 6.830912 2.018251
165 2 0.393469 7.609207 1.626462
165 3 -0.100467 6.946516 1.058040
166 1 6.320908 12.211213 8.206630
166 2 6.714608 11.406818 8.171318
166 3 5.787750 11.472220 7.900981
167 1 5.640912 5.423098 4.766622
167 2 5.524431 6.291738 5.037993
167 3 4.794482 5.635441 4.936798
168 1 6.909400 8.169666 1.076670
168 2 6.824539 8.284436 1.967860
168 3 6.011297 8.123107 1.500319
169 1 9.905298 13.251384 3.650534
169 2 9.463380 -0.371251 4.431044
169 3 8.933828 13.364687 3.616518
170 1 3.299949 10.815465 9.100328
170 2 2.701198 11.312632 9.461964
170 3 2.835328 11.361715 8.448788
171 1 8.453823 1.248292 8.520798
171 2 8.007208 0.701112 9.038954
171 3 7.719173 0.791108 8.118265
172 1 9.855154 12.772058 0.771009
172 2 9.506252 12.136713 1.273035
172 3 9.033467 12.473788 0.397343
173 1 1.058589 10.227278 0.628738
173 2 1.987641 10.455024 0.757062
173 3 1.384207 10.156000 1.487006
174 1 -0.142362 2.523453 3.577965
174 2 0.796511 2.271098 3.368499
174 3 0.066156 1.718376 2.983414
175 1 1.236413 2.622298 1.926352
175 2 1.223708 3.418243 1.420347
175 3 1.801308 2.653352 1.156423
176 1 13.204590 12.512604 1.054243
176 2 0.113609 12.240001 0.411595
176 3 12.692782 12.605642 0.291685
177 1 8.648979 8.882407 9.487914
177 2 9.425149 8.818454 9.820606
177 3 9.000335 8.043413 9.439155
178 1 4.029984 3.110939 9.968428
178 2 3.156108 3.339692 9.771181
178 3 3.759974 3.117679 9.054843
179 1 0.736407 2.231682 0.224268
179 2 1.325822 1.765141 0.740100
179 3 0.537449 1.329695 0.093688
180 1 5.193498 5.827533 2.296243
180 2 4.970527 6.561151 2.858900
180 3 4.292540 6.175574 2.294923
181 1 9.290603 4.495099 8.970365
181 2 9.204690 4.281785 9.864484
181 3 8.759896 3.742075 9.180163
182 1 11.539129 5.035611 6.246037
182 2 12.067980 5.741645 6.038626
182 3 12.054839 5.008543 5.394060
183 1 7.499231 7.131981 11.965656
183 2 8.235226 7.558300 12.113343
183 3 8.126422 6.934784 11.305607
184 1 8.774620 3.188938 10.169762
184 2 9.605636 3.149504 9.785467
184 3 8.866927 2.670294 9.319359
185 1 5.681104 7.028366 10.600226
185 2 5.212382 6.871849 9.874082
185 3 6.266616 6.782705 9.938190
186 1 1.478217 12.793302 2.571580
186 2 2.001199 13.164604 3.207105
186 3 1.245393 0.078231 2.843821
187 1 3.131236 6.396214 6.482667
187 2 3.645206 6.373680 7.168297
187 3 3.933517 6.874855 6.371033
188 1 12.451936 10.518661 8.386805
188 2 12.842937 11.391367 8.281930
188 3 12.902649 10.667926 7.609611
189 1 9.803077 8.112308 1.367602
189 2 10.581658 8.731185 1.309081
189 3 9.860978 8.718338 0.619208
190 1 12.556135 8.910562 2.927038
190 2 13.438407 9.277247 3.244725
190 3 13.128599 9.441286 2.369963
191 1 11.445792 4.556899 11.427902
191 2 11.715905 4.823197 10.560640
191 3 11.324743 3.991263 10.656690
192 1 3.349208 5.897031 3.953923
192 2 3.498338 5.470380 4.786103
192 3 2.630474 5.361611 4.285066
193 1 7.858229 1.078867 6.057687
193 2 8.634162 1.035266 6.354286
193 3 8.145609 0.153525 6.349577
194 1 6.298908 10.719439 12.579230
194 2 6.750600 11.477507 12.657365
194 3 6.647525 10.901977 13.481032
195 1 12.607616 7.302630 8.668476
195 2 12.575080 6.609564 9.164348
195 3 12.183062 6.656163 8.271936
196 1 8.236397 9.048103 1.710014
196 2 8.168455 9.625080 2.416942
196 3 7.486634 8.950216 2.270115
197 1 2.190595 2.105603 4.458231
197 2 2.020169 2.929878 4.750057
197 3 1.275622 2.326451 4.431792
198 1 8.901499 5.781655 3.015536
198 2 8.421693 5.705431 3.724764
198 3 9.023369 4.919515 3.450810
199 1 5.714430 4.751369 12.761860
199 2 5.411723 4.921776 0.084374
199 3 6.365236 5.233234 13.254745
200 1 3.147096 12.767739 12.288970
200 2 3.605089 12.634103 13.111773
200 3 2.675248 12.450301 13.015956
201 1 12.532068 9.424118 4.513956
201 2 12.159672 9.491677 5.306077
201 3 11.568612 9.250111 4.504165
202 1 1.988193 9.076015 6.434589
202 2 1.933629 9.515291 7.164861
202 3 2.598688 8.832785 7.141856
203 1 0.084603 1.817265 9.174971
203 2 0.148110 1.483071 8.383442
203 3 0.273896 0.867828 9.127600
204 1 6.023600 7.886004 2.879153
204 2 6.655452 8.449425 3.259392
204 3 5.970476 8.756402 2.610989
205 1 2.641442 7.451065 0.306225
205 2 2.802090 8.233647 -0.224402
205 3 2.127803 8.209904 0.478026
206 1 8.066043 13.226553 8.054490
206 2 8.615701 0.293698 8.220802
206 3 8.279601 0.252747 7.353904
207 1 10.578610 7.393529 3.463238
207 2 11.395346 7.753981 3.436098
207 3 11.311458 6.884549 2.999218
208 1 3.690578 0.407695 4.564818
208 2 3.569971 1.066817 5.176812
208 3 2.821358 0.693497 4.504402
209 1 10.811437 12.044255 12.501396
209 2 9.940852 12.194677 12.294643
209 3 10.496387 11.742247 11.618804
210 1 1.314345 9.342229 10.595746
210 2 1.930145 9.283508 11.213708
210 3 1.175352 8.724565 11.269840
211 1 7.272788 0.968140 4.565742
211 2 7.755745 1.536255 5.028256
211 3 7.228229 1.919701 4.294984
212 1 11.261886 6.349571 7.729365
212 2 11.895930 5.773123 8.065020
212 3 10.919245 5.594430 8.143972
213 1 -0.227144 11.235751 5.385357
213 2 12.621735 11.649238 5.358692
213 3 13.351592 12.084086 5.870385
214 1 10.531754 9.817420 2.542881
214 2 10.205049 10.352150 3.118691
214 3 10.021821 9.391479 3.225901
215 1 4.010115 3.800703 6.516027
215 2 4.703743 4.310967 6.682638
215 3 4.141584 4.331727 5.786933
216 1 13.052715 11.678145 1.561626
216 2 12.225336 11.322014 1.705559
216 3 12.971055 10.817273 1.400160
217 1 11.835910 5.938992 9.230086
217 2 12.550249 5.662880 8.800291
217 3 11.632145 5.024992 8.815328
218 1 2.412179 9.825574 0.034590
218 2 1.923462 9.045032 -0.119853
218 3 2.842086 9.221568 12.984073
219 1 8.247859 0.985105 2.854297
219 2 8.905454 0.760612 3.447659
219 3 8.437459 0.114946 2.775955
220 1 10.524750 12.107786 0.892240
220 2 10.990550 12.647718 0.343047
220 3 10.283579 12.152723 13.495402
221 1 10.229080 1.491102 4.637348
221 2 9.422646 1.551598 5.090387
221 3 9.502349 1.183624 4.084987
222 1 11.510737 5.768145 1.155989
222 2 11.228205 5.904161 1.971333
222 3 10.649926 5.554051 1.199536
223 1 3.962869 9.053154 5.576832
223 2 4.714842 9.567448 5.387081
223 3 3.782634 9.793210 4.962853
224 1 8.154040 6.580043 3.283606
224 2 8.028957 6.677319 4.134152
224 3 7.178798 6.697182 3.577678
225 1 6.222785 0.908091 2.560275
225 2 6.912331 1.377013 2.157379
225 3 6.326704 0.684214 1.699472
226 1 7.422564 11.260991 0.601275
226 2 7.934382 10.716909 1.107014
226 3 7.198820 10.330178 0.646515
227 1 1.612786 0.163806 5.909950
227 2 2.299543 0.225294 5.323336
227 3 1.796306 12.951420 5.356810
228 1 10.630116 8.654923 8.386763
228 2 10.230980 9.527169 8.537046
228 3 10.664536 9.005913 9.294969
229 1 7.173832 11.570419 7.024964
229 2 7.342560 11.490385 6.156315
229 3 6.676231 12.155961 6.472842
230 1 0.176844 6.052502 3.210383
230 2 0.435899 6.843069 2.954352
230 3 13.233247 6.730678 3.529745
231 1 2.260143 11.389647 2.223100
231 2 2.546391 10.745716 2.820403
231 3 2.495025 10.572588 1.778230
232 1 10.247047 0.550438 8.215194
232 2 10.997127 0.231993 8.484872
232 3 10.968680 1.134857 8.220960
233 1 7.187081 4.819328 6.484064
233 2 7.387497 5.706002 6.416724
233 3 6.720859 5.238544 5.795327
234 1 0.394739 7.917386 3.388814
234 2 0.429638 7.837850 2.522570
234 3 13.243343 8.358373 2.930529
235 1 11.159914 10.964379 11.741769
235 2 12.012890 11.007077 11.997481
235 3 11.547319 10.159605 12.019364
236 1 5.117352 9.994714 3.888523
236 2 5.867817 10.567505 3.612126
236 3 5.004789 10.546970 3.212467
237 1 0.672995 1.115536 1.187422
237 2 13.681953 1.278622 1.833819
237 3 0.545634 0.251004 1.629814
238 1 9.305981 1.695170 13.058480
238 2 9.162412 2.521156 13.331411
238 3 9.010810 2.258499 12.379661
239 1 8.589275 10.789271 9.724609
239 2 9.494876 10.751324 9.655501
239 3 8.810035 10.469562 8.887775
240 1 9.779253 8.617486 8.651042
240 2 8.928079 8.516924 8.542297
240 3 9.562630 8.471107 7.741214
241 1 5.647218 0.548272 0.972682
241 2 5.156903 1.349608 1.122303
241 3 4.650763 0.563179 0.944649
242 1 12.997035 10.753843 11.672443
242 2 13.373618 9.970068 11.416377
242 3 12.427713 10.118936 11.243662
243 1 0.622519 6.727826 8.386616
243 2 13.681706 7.356412 8.093239
243 3 0.275772 6.535625 7.584400
244 1 9.546590 6.973625 7.755443
244 2 10.173643 7.618896 7.443045
244 3 9.346865 7.413033 6.952193
245 1 1.312903 8.129331 7.948381
245 2 1.892149 7.703232 8.438979
245 3 1.365302 7.193232 7.732080
246 1 12.900382 1.174240 5.468925
246 2 13.080315 1.918112 5.898872
246 3 13.534603 1.622774 4.993467
247 1 6.166714 6.224537 7.639014
247 2 7.013760 5.906762 7.424311
247 3 6.342664 5.306444 7.830242
248 1 13.097638 11.160020 12.710373
248 2 12.945851 11.914536 13.219113
248 3 12.207080 11.241604 12.955617
249 1 10.637826 8.896968 12.114328
249 2 10.251253 8.497085 12.928099
249 3 9.663480 8.840298 12.218118
250 1 11.151115 0.761438 2.554069
250 2 11.634785 1.429288 2.988157
250 3 10.590786 1.341659 2.936428
251 1 1.704930 4.474595 6.899596
251 2 2.005908 5.367706 7.054090
251 3 2.594164 4.688499 6.981904
252 1 1.250129 6.618711 5.917315
252 2 1.732371 7.178175 6.356989
252 3 0.875188 6.854415 6.794040
253 1 5.862572 7.908204 4.497300
253 2 6.369140 8.630857 4.220459
253 3 5.680269 8.266959 3.652807
254 1 11.626866 12.735509 6.423169
254 2 11.754287 12.358246 7.187584
254 3 11.037936 11.939495 6.447413
255 1 1.204745 8.531429 6.319645
255 2 2.026870 8.192595 6.481398
255 3 1.275817 8.004970 7.024808
256 1 1.809925 11.806752 4.101316
256 2 1.695011 12.139509 3.233587
256 3 0.933967 11.853530 3.789325
257 1 3.235070 11.080163 5.844908
257 2 3.506291 10.573377 6.513840
257 3 3.045233 10.121601 5.757084
258 1 7.747537 12.570587 10.385215
258 2 7.552256 12.744593 11.272872
258 3 7.372546 11.903242 10.805019
259 1 4.024468 12.909983 12.423382
259 2 4.595925 12.451930 11.940783
259 3 3.866621 12.011660 12.398178
260 1 0.853178 1.846701 1.511081
260 2 0.638462 2.640125 1.187887
260 3 0.097376 1.897359 0.914662
261 1 8.629027 7.330252 3.019926
261 2 8.612758 8.154281 3.439473
261 3 9.502673 7.730304 3.328518
262 1 12.643308 6.227529 6.713929
262 2 11.956957 6.239680 7.210104
262 3 12.341025 5.397134 6.957703
263 1 0.385353 7.644372 7.240255
263 2 0.453358 8.072265 6.509370
263 3 -0.216389 7.412562 6.562556
264 1 9.862928 5.041546 8.359854
264 2 10.086654 5.788374 8.792460
264 3 9.390309 5.897774 8.186895
265 1 9.109195 1.784400 8.843621
265 2 9.724183 2.391722 8.498423
265 3 9.112862 1.880308 7.919251
266 1 6.951761 6.371488 5.933864
266 2 6.963587 7.122145 5.518348
266 3 6.055091 6.746942 5.976812
267 1 12.227782 4.136085 10.132472
267 2 12.216209 4.976020 9.705607
267 3 11.741741 4.168555 9.312643
268 1 0.177491 13.044351 13.563845
268 2 0.210794 0.184923 12.964360
268 3 13.006996 13.160179 13.028306
269 1 11.324065 -0.017584 6.311408
269 2 11.977069 0.367843 6.804094
269 3 11.197875 -0.046460 7.228012
270 1 13.064314 8.782668 7.926855
270 2 12.734695 9.616087 7.898507
270 3 12.167378 8.808746 7.793665
271 1 12.657857 12.326176 7.678589
271 2 12.886948 13.094505 8.162110
271 3 13.497949 12.158052 8.079494
272 1 12.114659 5.472064 1.714208
272 2 11.804075 5.345242 2.557195
272 3 11.445595 4.857521 1.780009
273 1 2.413929 12.504427 10.393460
273 2 2.599461 12.308436 9.577524
273 3 2.052243 11.705375 10.064432
274 1 1.341872 3.672945 9.339484
274 2 1.949600 3.827724 8.706760
274 3 1.002769 3.765104 8.399979
275 1 7.843879 5.663297 8.888025
275 2 8.162474 6.393778 9.261152
275 3 7.392118 6.510695 8.763207
276 1 6.720619 0.299106 11.908082
276 2 6.869267 13.113287 12.251942
276 3 6.213151 13.255080 11.405411
277 1 7.725398 7.988042 7.630798
277 2 8.324127 8.585546 7.705874
277 3 8.762373 7.724364 7.722487
278 1 7.405933 12.816023 1.649327
278 2 7.251622 13.607342 2.033611
278 3 6.864465 13.518044 1.108630
279 1 11.201923 10.277183 7.107611
279 2 11.701430 11.000669 6.683465
279 3 10.777542 10.805984 6.534532
280 1 1.526873 2.873829 6.142643
280 2 2.306303 2.875112 5.792611
280 3 1.877636 2.091669 5.524651
281 1 1.684470 9.042630 12.058904
281 2 2.089920 8.523218 12.652994
281 3 1.413751 8.025033 12.144727
282 1 3.377287 1.916687 3.377434
282 2 3.052856 2.373259 3.971903
282 3 2.609406 1.536525 3.712607
283 1 13.030418 7.869709 1.486175
283 2 12.811768 8.735303 1.629205
283 3 12.530743 8.051574 2.285426
284 1 5.889187 2.888855 1.490850
284 2 5.877831 3.511267 2.102852
284 3 5.139042 3.388116 1.485422
285 1 7.177072 6.816933 10.486396
285 2 7.778028 7.475414 10.514270
285 3 7.367415 7.167207 9.701342
286 1 0.761017 7.533339 4.924249
286 2 -0.082148 7.152539 5.047701
286 3 0.315250 7.255801 4.166571
287 1 5.528301 2.457689 2.203855
287 2 6.386616 2.228662 2.119019
287 3 5.722837 1.563777 2.025651
288 1 11.001475 4.726421 6.932914
288 2 11.664859 4.670068 7.629397
288 3 10.679378 4.574323 7.808904
289 1 3.707930 13.298253 1.439542
289 2 4.346297 13.198254 0.872911
289 3 3.934437 12.370181 1.220758
290 1 2.041363 5.120406 1.397751
290 2 2.440975 5.460020 0.680910
290 3 1.497486 5.007087 0.629141
291 1 0.306419 1.442524 5.841924
291 2 0.866753 0.799561 6.213526
291 3 0.196939 0.561472 5.547986
292 1 6.514469 13.142249 8.059398
292 2 7.299874 13.481749 7.553930
292 3 6.562528 13.002580 7.088504
293 1 6.626901 7.568044 6.283808
293 2 7.101942 8.370590 5.976195
293 3 6.247403 8.029616 5.652249
294 1 2.241516 1.493984 6.341500
294 2 2.095005 2.317744 6.789229
294 3 1.762653 1.528377 7.187743
295 1 8.759202 0.220651 4.480912
295 2 8.458355 1.033345 4.367654
295 3 7.934044 0.340943 4.038436
296 1 11.563872 12.323278 9.171440
296 2 12.376485 12.439930 9.524530
296 3 12.094145 11.577156 9.285633
297 1 4.433658 7.902487 -0.459089
297 2 4.612320 7.461848 0.303379
297 3 4.139034 7.002349 13.091588
298 1 7.130876 0.681065 6.975895
298 2 6.965654 1.544388 7.333823
298 3 6.685792 0.755696 7.786452