3000
Lattice="13.572088082974528 0.0 0.0 0.0 13.572088082974528 0.0 0.0 0.0 13.572088082974528" Properties=molecule:I:1:species:S:1:pos:R:3 Time=1000
1 1 7.402800 6.593995 4.758946
1 2 7.453674 6.259279 5.638506
1 3 8.264112 6.333186 5.021943
2 1 8.691511 8.504861 2.388295
2 2 9.184158 9.190010 2.097009
2 3 9.128465 8.364484 1.580137
3 1 7.794544 9.249652 5.031175
3 2 7.437998 9.519716 5.853838
3 3 8.343432 9.150274 5.798981
4 1 3.674504 8.785418 9.371253
4 2 3.841096 9.710839 8.992438
4 3 3.691989 8.932544 8.472010
5 1 4.650255 4.296981 7.612074
5 2 5.303766 3.704259 7.381093
5 3 4.428414 3.321845 7.550942
6 1 1.292413 4.627945 2.955354
6 2 1.502419 3.961905 3.435994
6 3 1.124466 3.810637 2.521696
7 1 6.857570 6.347741 1.650475
7 2 6.292699 7.046691 1.386554
7 3 5.914571 6.157760 1.474734
8 1 6.662900 3.815233 7.329844
8 2 7.408081 3.459576 7.627160
8 3 6.531107 2.912822 7.867764
9 1 6.028830 4.634162 5.870619
9 2 5.679217 5.509979 6.022225
9 3 5.203645 4.801430 5.526641
10 1 10.570728 4.078385 6.563261
10 2 10.724029 3.412758 7.185293
10 3 9.846826 3.541627 6.789794
11 1 4.404828 2.528922 8.629599
11 2 4.509287 1.982783 9.338475
11 3 4.146345 1.604581 8.513975
12 1 5.009979 12.859514 1.189978
12 2 5.785597 13.368531 1.354921
12 3 5.394468 13.271807 0.414746
13 1 9.217106 6.092893 9.113762
13 2 8.863247 6.093547 9.966371
13 3 9.075449 5.263180 9.441545
14 1 2.905963 6.790914 5.725762
14 2 2.306507 7.421563 5.766914
14 3 2.214063 6.712931 5.043874
15 1 11.401534 2.402691 5.036944
15 2 11.719498 2.781707 4.315112
15 3 11.399393 1.771037 4.361981
16 1 0.906516 5.116017 10.542260
16 2 1.121626 4.606128 9.769086
16 3 0.781328 4.059627 10.537858
17 1 10.137793 9.095310 4.029609
17 2 10.996438 8.768284 4.179807
17 3 10.208405 8.212511 4.234063
18 1 4.486190 7.397414 8.782564
18 2 5.127494 7.721747 8.170065
18 3 4.993918 6.783318 8.291071
19 1 4.397215 1.884110 0.603106
19 2 3.913555 1.069724 0.729802
19 3 4.727544 1.122652 0.186176
20 1 10.470824 12.019395 2.560683
20 2 11.210706 12.247782 2.154861
20 3 10.427339 12.635419 1.808758
21 1 8.887593 3.995300 5.164697
21 2 9.644256 3.625302 5.002051
21 3 8.799548 3.104212 4.883074
22 1 12.026038 10.003371 10.430206
22 2 12.332933 9.836511 9.631999
22 3 11.659347 9.276328 9.942036
23 1 5.418099 0.535817 1.844502
23 2 5.287436 0.810517 2.693693
23 3 5.878323 0.096887 2.517887
24 1 13.062703 5.111713 10.520861
24 2 13.127983 4.170188 10.651069
24 3 12.608964 4.739840 11.281255
25 1 8.925719 10.237046 0.565221
25 2 8.884948 10.225142 1.571769
25 3 9.220357 9.495695 1.106082
26 1 10.103920 1.639567 7.974988
26 2 10.190222 1.350751 8.857708
26 3 9.513320 0.963766 8.312409
27 1 13.089266 6.737673 12.670971
27 2 12.603174 6.731793 13.395949
27 3 12.230024 6.268128 12.484988
28 1 13.020343 9.378595 6.301957
28 2 13.221388 10.249828 6.001762
28 3 12.581030 10.115059 6.708112
29 1 10.389029 8.426594 5.252149
29 2 10.098856 9.157545 5.727563
29 3 9.574913 8.823558 4.946831
30 1 0.508940 9.998415 7.550243
30 2 1.409114 9.821157 7.823473
30 3 0.780979 9.168281 7.292921
31 1 4.758738 7.281156 12.115881
31 2 4.141895 6.647800 12.105479
31 3 4.334764 7.214040 11.265778
32 1 6.503699 1.261998 6.715499
32 2 7.135204 1.518674 6.203792
32 3 6.273768 1.148233 5.876176
33 1 13.414650 10.193925 0.568696
33 2 0.309006 10.387763 13.432985
33 3 13.014964 10.109004 13.285874
34 1 4.037525 3.858879 12.111931
34 2 4.019757 4.346571 11.320922
34 3 3.501704 3.487767 11.398401
35 1 4.267386 8.405306 9.868932
35 2 4.572685 9.254693 9.678512
35 3 4.828953 8.562909 9.108236
36 1 6.973595 1.848130 10.596614
36 2 7.306782 2.630223 10.316080
36 3 6.382904 2.416065 10.011763
37 1 3.809596 1.132318 7.179461
37 2 3.791736 0.726360 8.041377
37 3 3.074332 0.546960 7.235641
38 1 10.706898 11.973798 9.171636
38 2 11.133132 12.484855 9.779207
38 3 11.101559 11.514931 9.835928
39 1 8.680003 11.298771 11.647588
39 2 8.320454 10.678494 12.141971
39 3 7.870085 10.913126 11.376039
40 1 8.210098 4.768189 4.800519
40 2 8.687002 4.172188 4.207189
40 3 7.960097 3.861717 4.871600
41 1 7.929187 4.568961 3.835636
41 2 8.021765 5.094849 3.121448
41 3 7.703935 4.212912 2.977744
42 1 5.779942 4.525338 7.649143
42 2 5.233063 4.406136 8.416201
42 3 5.142644 5.264483 7.862133
43 1 4.868556 13.516417 2.815771
43 2 5.338655 12.903338 3.218278
43 3 4.436427 12.634317 2.875036
44 1 8.339259 3.459163 12.488259
44 2 8.961781 4.060417 12.697594
44 3 7.909345 4.148948 12.998770
45 1 9.542535 6.381049 6.367043
45 2 9.587937 6.034683 7.147702
45 3 9.147836 5.521481 6.432240
46 1 2.170286 11.976539 1.499654
46 2 2.583772 11.342929 1.115963
46 3 1.634063 11.338881 0.945558
47 1 12.494089 3.497177 11.190172
47 2 12.103874 4.001564 11.800494
47 3 12.673906 3.279646 12.138389
48 1 7.993006 4.727023 10.760445
48 2 8.834550 5.153774 10.410697
48 3 8.253529 4.611260 9.877754
49 1 4.948751 2.955909 9.205926
49 2 5.396926 3.830566 9.176355
49 3 5.341600 3.237804 8.352292
50 1 10.786107 1.684471 7.257504
50 2 11.168904 0.949910 6.907012
50 3 10.263275 0.922799 7.250838
51 1 6.781199 3.852866 14.125719
51 2 5.981163 3.619403 0.965790
51 3 6.091907 4.469144 0.532082
52 1 3.181354 1.900061 6.819363
52 2 2.544623 2.324048 7.386923
52 3 3.237112 1.600212 7.744619
53 1 3.014343 3.081053 13.529247
53 2 2.217398 3.162946 0.468087
53 3 2.170820 2.892974 13.052216
54 1 13.953037 5.939311 0.763845
54 2 1.001059 6.050341 0.081515
54 3 13.623876 6.256035 -0.130844
55 1 10.591445 7.014773 0.793018
55 2 10.835522 6.172587 0.449321
55 3 10.004017 6.322350 1.134287
56 1 5.249315 3.689670 5.820233
56 2 5.871343 3.729171 6.476923
56 3 4.977847 3.158339 6.554738
57 1 5.273697 -0.054040 9.305802
57 2 5.825936 13.109466 9.842242
57 3 5.909898 13.156198 8.769111
58 1 1.483035 11.026983 13.589649
58 2 1.789669 11.633345 12.939056
58 3 2.131554 10.734811 13.054804
59 1 9.370432 11.124704 3.125600
59 2 8.557165 11.060282 3.484018
59 3 9.312981 10.779873 3.956577
60 1 0.173518 9.211889 10.946810
60 2 0.189672 9.259255 10.043783
60 3 12.868454 9.455606 10.622552
61 1 2.782511 1.712984 11.588281
61 2 2.546256 2.284886 12.193085
61 3 1.990396 1.420546 12.137450
62 1 7.840171 11.292574 8.579635
62 2 8.050105 11.491900 9.456093
62 3 7.475353 10.704095 9.194157
63 1 9.507836 2.287220 3.631643
63 2 10.111678 3.009484 3.350701
63 3 9.897893 2.285281 2.750615
64 1 8.377136 6.268169 0.194244
64 2 8.811447 6.312564 0.993554
64 3 8.621929 7.169073 0.390898
65 1 13.356254 5.495212 3.867132
65 2 13.383770 6.123406 4.403894
65 3 13.097365 5.223410 4.707131
66 1 9.056309 1.752392 2.335924
66 2 9.545306 1.226722 2.785551
66 3 9.947121 1.441143 1.980928
67 1 12.505920 6.545111 10.732048
67 2 12.200457 5.615037 10.841550
67 3 12.519920 6.001399 9.943229
68 1 9.833820 9.252778 10.561137
68 2 10.742652 9.194081 10.502911
68 3 10.261533 8.386712 10.310138
69 1 7.269907 9.960781 9.811007
69 2 7.795429 9.310133 10.086244
69 3 6.872625 9.124445 9.852360
70 1 10.643686 13.351118 5.303553
70 2 11.020726 13.196460 4.483402
70 3 10.208000 12.637449 4.678215
71 1 11.132475 11.857495 8.323361
71 2 11.878415 12.403946 8.046075
71 3 11.026395 12.366439 7.569174
72 1 6.063287 5.082512 2.917283
72 2 5.532706 5.714273 3.269707
72 3 5.158851 4.999410 2.722017
73 1 6.083547 5.597508 9.816927
73 2 6.370250 5.248453 10.610364
73 3 5.523653 5.017158 10.214535
74 1 9.583088 11.175246 6.216843
74 2 9.968571 10.527029 6.691319
74 3 9.036717 10.821654 6.896467
75 1 8.374117 0.931150 1.228370
75 2 7.897596 0.733483 1.977057
75 3 7.402060 0.865372 1.121500
76 1 11.524947 8.641240 7.246393
76 2 11.829529 9.446722 7.121982
76 3 11.952553 8.749644 6.390418
77 1 11.443144 2.809688 5.852679
77 2 10.772038 2.718870 6.470739
77 3 10.556976 3.295572 5.731039
78 1 10.241814 1.170030 6.364439
78 2 10.951856 0.744119 5.854242
78 3 10.337930 0.255357 6.325844
79 1 7.754004 11.366994 1.731811
79 2 8.022015 10.550165 1.925137
79 3 7.029187 10.770264 1.792408
80 1 7.916001 1.692962 2.911722
80 2 7.918121 2.355552 3.607672
80 3 7.086979 2.101056 3.109733
81 1 6.995006 10.964803 3.480002
81 2 7.379699 11.091355 2.671466
81 3 6.435129 10.838141 2.677020
82 1 9.264145 0.884240 1.008470
82 2 8.952540 1.412121 0.344857
82 3 8.926138 0.449053 0.276527
83 1 3.793525 11.802812 13.321261
83 2 4.644931 11.668283 13.063580
83 3 4.155073 10.955896 13.630570
84 1 5.715737 7.198182 5.174500
84 2 5.436359 8.003083 5.418829
84 3 4.845596 7.304760 5.542988
85 1 1.203426 11.224033 4.662437
85 2 1.999335 11.127300 4.867832
85 3 1.737095 10.704536 4.017609
86 1 12.321050 7.977567 1.051795
86 2 13.001078 7.997252 0.472848
86 3 12.593478 7.200818 0.692592
87 1 12.532418 9.924769 0.966830
87 2 12.011262 10.447070 1.407366
87 3 11.599181 9.639280 1.153793
88 1 4.362895 7.319888 2.462809
88 2 3.965990 7.935559 1.988845
88 3 3.452915 7.370494 2.622392
89 1 9.601166 0.992974 11.644618
89 2 10.277560 0.511988 11.758621
89 3 9.325848 0.175144 11.403277
90 1 8.410888 8.222976 0.922938
90 2 8.966990 8.734026 0.482194
90 3 8.235081 8.269864 13.524817
91 1 1.644592 1.556802 10.006060
91 2 2.132846 2.109990 10.521513
91 3 2.674293 1.508568 9.751384
92 1 7.344950 2.484954 8.243970
92 2 6.860390 2.179715 8.960162
92 3 6.636949 1.810065 8.065721
93 1 8.418927 8.442171 11.575646
93 2 7.669365 8.659815 11.979578
93 3 7.575221 7.981218 11.310156
94 1 7.732483 8.342704 5.291782
94 2 8.065585 8.163839 6.086031
94 3 7.919318 7.374763 5.392073
95 1 12.103990 8.354648 3.495316
95 2 12.895643 8.661212 3.918147
95 3 12.080041 8.410298 4.400249
96 1 6.147680 5.314102 0.988315
96 2 5.639859 5.247136 1.858435
96 3 5.260786 5.007270 1.048488
97 1 9.059166 0.403376 10.486917
97 2 8.819797 1.201550 10.824836
97 3 8.183045 0.614398 10.050866
98 1 4.232567 0.925372 3.862915
98 2 4.879220 1.411391 3.426479
98 3 5.054223 0.514843 3.637348
99 1 12.769375 11.887227 3.211160
99 2 12.978976 11.741410 2.391173
99 3 12.033021 11.516935 2.597921
100 1 11.716896 3.195103 11.175693
100 2 11.144723 3.611102 11.828495
100 3 10.771830 3.101607 11.096809
101 1 8.891839 12.209999 3.331143
101 2 9.467487 12.358541 3.923894
101 3 9.650917 12.522539 2.915868
102 1 5.852214 2.661693 13.167123
102 2 6.569446 3.065357 13.469890
102 3 6.404696 1.993514 13.455240
103 1 12.080682 13.261579 1.983332
103 2 11.877071 13.397638 2.852282
103 3 12.231423 12.502782 2.423489
104 1 10.906822 6.795207 13.390960
104 2 11.681251 6.673817 0.221054
104 3 11.396844 6.042189 13.077559
105 1 7.191483 9.912543 7.629236
105 2 7.665453 10.075641 8.380802
105 3 8.094078 9.974642 7.436849
106 1 3.119685 0.288726 1.982364
106 2 2.496233 0.477740 1.422043
106 3 2.696278 13.066709 1.499957
107 1 12.171932 8.071875 12.558230
107 2 12.770834 7.624810 13.022589
107 3 11.836864 7.285087 12.976610
108 1 4.104668 13.488130 3.465798
108 2 4.446467 0.125532 4.263940
108 3 4.327431 12.767366 4.044916
109 1 6.648512 10.401151 4.438163
109 2 7.202870 10.091453 5.055500
109 3 7.171438 9.627954 4.183779
110 1 2.246310 0.888509 12.904061
110 2 2.960157 0.703271 12.382292
110 3 3.027732 1.274020 13.187645
111 1 3.111017 5.440375 2.587022
111 2 3.007191 4.610684 2.894281
111 3 2.610113 5.393046 3.360587
112 1 6.050503 3.962473 9.681229
112 2 6.918640 3.922294 9.534653
112 3 6.238077 3.192063 9.223812
113 1 2.431412 12.167845 12.063218
113 2 2.335388 13.073924 12.220870
113 3 2.007924 12.690837 11.345558
114 1 6.432545 8.860782 1.122136
114 2 5.688186 9.268150 1.519919
114 3 5.790065 9.201765 0.563391
115 1 10.750600 8.240770 0.938336
115 2 11.427526 8.352488 1.561639
115 3 10.841855 7.603901 1.546206
116 1 3.667764 2.586967 6.318364
116 2 3.081517 3.217085 6.129457
116 3 2.841781 2.253911 5.941785
117 1 13.145359 6.182850 1.545257
117 2 12.817530 6.943753 1.898370
117 3 12.246446 6.254134 1.427718
118 1 4.573238 2.156505 5.057759
118 2 4.543697 1.321231 5.502236
118 3 4.787980 1.371087 4.532224
119 1 4.980515 1.418608 10.161329
119 2 5.604471 1.960624 9.692001
119 3 5.162829 1.076375 9.322535
120 1 11.691341 3.109878 9.766652
120 2 12.231833 2.868551 10.500522
120 3 11.517112 2.298235 10.168945
121 1 9.756535 2.946250 4.356488
121 2 10.323264 3.617686 4.144999
121 3 9.407517 3.667198 3.858636
122 1 10.922940 -0.187400 12.289608
122 2 10.847058 12.576065 12.650020
122 3 10.911066 12.601579 11.667691
123 1 4.377547 0.887311 2.783119
123 2 3.874987 1.593972 3.174330
123 3 3.430449 0.866424 2.727878
124 1 7.455427 5.969796 3.250089
124 2 7.869082 5.851105 2.468544
124 3 7.057664 5.298860 2.638507
125 1 4.789563 5.595231 0.232690
125 2 4.918867 6.446260 13.462101
125 3 5.254626 5.642312 13.000375
126 1 4.422786 13.158619 9.386229
126 2 3.722245 12.529534 9.337632
126 3 4.542326 12.364406 8.849103
127 1 5.100440 8.054143 12.486660
127 2 5.699278 7.929866 11.824166
127 3 4.776625 8.186490 11.571638
128 1 9.301788 7.744389 8.540895
128 2 10.228285 7.827268 8.445296
128 3 9.673471 6.935617 8.669420
129 1 6.646809 10.921070 6.080742
129 2 6.544390 9.955104 5.915985
129 3 6.263939 10.539728 5.251668
130 1 1.902532 3.215047 2.167734
130 2 2.685014 3.722164 2.209448
130 3 2.382879 3.200747 1.419098
131 1 2.960847 12.692335 11.222169
131 2 3.831289 12.546583 11.429220
131 3 3.273653 11.827976 11.560693
132 1 10.320412 6.003175 7.724442
132 2 10.474443 6.817897 8.096403
132 3 10.544761 6.686877 7.098155
133 1 0.294712 13.215943 2.997795
133 2 1.026421 12.888537 3.338908
133 3 0.143808 12.222608 3.088729
134 1 4.606808 8.532315 8.198776
134 2 4.695086 9.493987 8.618840
134 3 4.738831 9.192494 7.593364
135 1 6.246890 8.713370 10.706503
135 2 6.568884 8.397233 11.432640
135 3 6.913046 7.987476 10.527823
136 1 10.695265 6.281731 9.753448
136 2 10.242804 6.311461 10.489582
136 3 9.831805 5.882090 9.758729
137 1 5.052578 4.145637 10.004605
137 2 5.379038 3.911832 10.766633
137 3 5.485286 3.250410 10.073765
138 1 1.047127 0.635914 7.240391
138 2 1.357767 13.463873 7.686245
138 3 0.432376 -0.087304 7.409277
139 1 0.716662 6.904731 10.128946
139 2 0.323913 7.090260 10.921052
139 3 13.301160 6.854525 10.198197
140 1 9.250440 5.218497 2.236057
140 2 10.149819 5.312951 1.950686
140 3 9.361346 5.447070 1.343259
141 1 0.566242 3.466239 11.476565
141 2 0.074134 3.553913 12.248484
141 3 13.405039 2.905733 11.498894
142 1 9.236495 8.037792 11.591731
142 2 9.057076 7.241713 11.789089
142 3 8.712785 7.583763 10.935764
143 1 9.196317 2.955496 3.118369
143 2 8.740090 2.891715 3.890838
143 3 8.573345 3.645640 3.184076
144 1 6.420744 4.259754 1.495589
144 2 6.154206 4.360615 2.376623
144 3 5.509252 4.214693 1.640994
145 1 6.604429 4.304397 12.903617
145 2 7.174959 4.537984 12.164252
145 3 6.246244 4.565861 11.999809
146 1 5.847592 12.317147 1.167582
146 2 6.431241 12.719960 1.819298
146 3 5.519586 12.650913 2.023609
147 1 8.671366 7.356695 4.847506
147 2 8.895305 7.920553 5.507753
147 3 9.034616 6.932255 5.619863
148 1 1.838503 2.392394 8.154013
148 2 1.960485 3.225001 8.356938
148 3 1.338730 3.009143 7.557872
149 1 0.551307 8.292262 12.300583
149 2 0.324695 9.167519 12.066835
149 3 13.238757 8.581684 12.469991
150 1 1.425838 0.889997 10.462934
150 2 1.336735 0.706054 11.335429
150 3 2.206332 1.091223 10.909156
151 1 6.308134 4.925878 3.970386
151 2 7.140602 5.108079 3.653451
151 3 6.660254 4.379922 3.258099
152 1 6.470948 12.953294 4.849970
152 2 6.257477 0.151849 5.269051
152 3 6.138883 0.134525 4.329674
153 1 2.433760 12.830123 0.560918
153 2 3.279167 13.026012 0.448957
153 3 3.037694 12.095526 0.463559
154 1 9.143079 11.117882 12.452221
154 2 8.711168 10.992326 13.195549
154 3 9.435727 11.645159 13.154916
155 1 1.978481 0.559274 2.198203
155 2 2.391170 13.406488 2.423184
155 3 1.723747 13.225735 1.805569
156 1 9.624152 3.422147 12.992769
156 2 10.058144 4.119522 12.539089
156 3 9.417084 3.282533 12.080464
157 1 3.487412 12.526500 8.232414
157 2 4.186370 12.607382 7.658904
157 3 3.754973 11.606431 7.783759
158 1 6.509237 0.721572 0.511635
158 2 5.679373 0.617381 0.066726
158 3 6.531999 0.022543 -0.129315
159 1 5.995092 10.743396 1.630292
159 2 6.349452 10.799006 0.775635
159 3 5.607440 11.411072 1.065267
160 1 12.398783 0.113802 3.562462
160 2 12.939029 0.289378 2.984652
160 3 12.803956 12.911098 3.241571
161 1 3.904372 6.740011 9.188255
161 2 3.937153 6.385474 9.972054
161 3 3.223609 6.121156 9.233517
162 1 12.359094 5.680701 4.141119
162 2 12.623998 4.954251 3.708239
162 3 12.595133 5.867419 3.225725
163 1 5.113381 3.967082 0.521244
163 2 5.060709 3.202306 13.460637
163 3 5.827575 3.794417 13.386547
164 1 2.314337 6.983411 10.871267
164 2 3.239280 6.830293 10.678628
164 3 2.780251 7.688225 10.556133
165 1 0.095269 6.795736 2.029071
165 2 0.423674 7.513742 1.735130
165 3 13.505592 6.865778 1.005520
166 1 6.363492 12.133798 8.361298
166 2 6.739903 11.300288 8.353298
166 3 5.801099 11.422889 8.048184
167 1 5.822193 5.479203 5.146933
167 2 5.525160 6.350253 5.431208
167 3 4.905113 5.713732 5.058114
168 1 6.946398 8.077281 1.196276
168 2 6.843551 8.206029 2.123406
168 3 6.061436 8.105328 1.501716
169 1 9.732420 13.235822 3.618627
169 2 9.475144 13.195289 4.439013
169 3 8.821355 13.319577 3.615322
170 1 3.426576 10.881250 8.989513
170 2 2.706184 11.234844 9.354812
170 3 2.945482 11.398033 8.419649
171 1 8.481593 1.264230 8.552528
171 2 7.999954 0.730434 9.017365
171 3 7.758381 0.886386 8.074421
172 1 10.003290 12.741827 0.989185
172 2 9.664262 12.027681 1.385272
172 3 9.236454 12.390749 0.501728
173 1 1.239756 10.201192 0.603540
173 2 2.106437 10.552331 0.523712
173 3 1.599391 10.365752 1.432043
174 1 13.426236 2.667321 3.414221
174 2 0.714172 2.226265 3.289612
174 3 -0.084553 1.727298 2.951643
175 1 1.108748 2.480774 1.942335
175 2 1.302410 3.224215 1.503082
175 3 1.792859 2.419119 1.229675
176 1 13.490145 12.335902 1.129393
176 2 0.089661 11.970101 0.383689
176 3 12.867137 12.634744 0.384583
177 1 8.640407 8.939455 9.612233
177 2 9.429107 8.797768 9.894867
177 3 8.901061 8.061761 9.650296
178 1 3.912344 3.185420 9.903288
178 2 3.081998 3.258367 9.639463
178 3 3.729251 3.121298 8.973264
179 1 0.690731 1.928600 0.084738
179 2 1.217033 1.440579 0.682984
179 3 0.341036 1.125276 0.213669
180 1 5.250486 5.901428 2.377577
180 2 5.213944 6.601463 2.984665
180 3 4.383610 6.356494 2.414216
181 1 9.373599 4.418526 8.941527
181 2 9.146086 4.247774 9.842204
181 3 8.712561 3.738732 9.139071
182 1 11.603628 5.051425 5.975561
182 2 12.163091 5.713906 6.001092
182 3 12.049613 5.378988 5.139640
183 1 7.574273 6.900477 12.136388
183 2 8.007927 7.621860 12.143747
183 3 8.043342 6.986198 11.399900
184 1 8.628267 3.132198 10.096691
184 2 9.507307 3.263400 9.760074
184 3 8.919403 2.611945 9.362626
185 1 5.672474 6.639571 10.561345
185 2 5.217023 6.953035 9.865362
185 3 6.116756 6.581247 9.800485
186 1 1.702900 12.866887 2.752724
186 2 1.872163 13.250267 3.604771
186 3 1.358073 0.136120 2.827618
187 1 3.098431 6.223127 6.503198
187 2 3.550163 6.567634 7.138305
187 3 3.884180 6.764228 6.241674
188 1 12.540758 10.562276 8.366166
188 2 12.986031 11.302719 8.304658
188 3 12.843094 10.772570 7.476066
189 1 9.982799 7.731501 1.207077
189 2 10.226530 8.460862 1.679862
189 3 9.917486 8.665704 0.759890
190 1 12.627707 8.843454 2.976524
190 2 13.392884 9.297618 3.291243
190 3 13.117595 9.380724 2.403093
191 1 11.440125 4.460843 11.423134
191 2 11.713870 4.781307 10.682593
191 3 11.360125 3.923124 10.564086
192 1 3.478751 6.007896 4.012811
192 2 3.710906 5.506285 4.792851
192 3 2.758797 5.593830 4.412811
193 1 8.042282 0.977713 6.167664
193 2 8.764111 0.848288 6.532041
193 3 8.222024 0.055550 6.359805
194 1 6.405490 10.847037 12.482821
194 2 6.838681 11.562903 12.649078
194 3 6.595782 10.977652 13.392854
195 1 12.654318 7.411710 8.527855
195 2 12.658074 6.768130 9.196721
195 3 12.126205 6.674483 8.347992
196 1 8.317478 8.913607 1.583636
196 2 8.210104 9.638777 2.216985
196 3 7.683481 8.870307 2.293785
197 1 2.342874 2.011169 4.314435
197 2 2.174752 2.810582 4.726053
197 3 1.402262 2.222938 4.461732
198 1 8.698111 5.605383 2.853685
198 2 8.522390 5.882554 3.650498
198 3 8.912970 4.946737 3.522994
199 1 5.631609 4.613219 12.774254
199 2 5.224386 4.763487 -0.001248
199 3 6.199768 5.155461 13.406778
200 1 3.135232 12.654244 12.339344
200 2 3.563551 12.667212 13.157259
200 3 2.544759 12.602508 13.067483
201 1 12.556068 9.298295 4.647230
201 2 12.420887 9.367451 5.486026
201 3 11.669544 9.391752 4.824194
202 1 1.867226 9.090680 6.679080
202 2 2.193906 9.713522 7.125180
202 3 2.596366 8.814342 7.151836
203 1 0.017270 1.657309 9.368847
203 2 0.155119 1.347936 8.529285
203 3 0.248703 0.760046 9.320274
204 1 6.053181 7.874684 2.803242
204 2 6.463916 8.470571 3.304836
204 3 5.998135 8.711221 2.396892
205 1 2.753620 7.372146 0.377477
205 2 2.622394 8.101531 13.435603
205 3 2.224506 8.045769 0.735175
206 1 8.120173 13.160453 8.031891
206 2 8.723812 0.170524 8.303210
206 3 8.292785 0.243598 7.429748
207 1 10.577880 7.477158 3.598275
207 2 11.196798 8.075820 3.388860
207 3 11.257598 7.151690 3.027309
208 1 3.871485 0.673997 4.768923
208 2 3.533564 1.179527 5.398732
208 3 2.933060 0.792860 4.757961
209 1 10.362977 11.823513 12.715887
209 2 9.847643 12.166577 12.081084
209 3 10.551496 11.616493 11.773662
210 1 1.065312 9.232678 10.616050
210 2 1.884074 9.025135 10.933556
210 3 1.059839 8.756487 11.405070
211 1 7.535910 1.125263 4.430094
211 2 7.577635 1.513552 5.199224
211 3 7.310225 2.009272 4.324617
212 1 11.271714 6.342497 7.885183
212 2 11.964640 5.785718 8.131506
212 3 11.029942 5.606942 8.309064
213 1 13.143028 11.038443 5.458638
213 2 12.625365 11.688456 5.282945
213 3 13.411290 11.881343 5.829546
214 1 10.390572 9.887427 2.698266
214 2 10.104705 10.677841 2.921771
214 3 9.923417 9.899297 3.482896
215 1 4.172379 3.718310 6.582148
215 2 4.904621 4.181860 6.674579
215 3 4.367380 4.182050 5.825531
216 1 13.245195 11.548097 1.529220
216 2 12.418265 11.379054 1.642144
216 3 13.125324 10.649892 1.378761
217 1 11.934333 5.974775 9.178695
217 2 12.741084 5.827980 8.896653
217 3 11.885335 5.028519 8.926440
218 1 2.352227 9.795315 -0.001180
218 2 2.028851 8.899077 13.543666
218 3 2.856099 9.177556 13.037854
219 1 8.625999 1.149953 2.792619
219 2 9.050387 0.738095 3.408063
219 3 8.430565 0.273546 2.769712
220 1 10.781432 12.095609 0.769037
220 2 10.869624 12.891679 0.382605
220 3 10.174212 12.299256 13.626520
221 1 10.387839 1.426639 4.687484
221 2 9.617780 1.400950 5.140588
221 3 9.706919 1.190317 4.110780
222 1 11.411713 5.725948 1.118847
222 2 10.967737 5.913683 1.833303
222 3 10.537538 5.447784 1.063317
223 1 3.991570 9.085441 5.450782
223 2 4.587522 9.743140 5.496502
223 3 3.710291 9.856267 4.991890
224 1 8.042632 6.673649 3.149793
224 2 8.151266 6.788782 4.041583
224 3 7.245501 6.851904 3.681984
225 1 6.253709 1.115426 2.549827
225 2 7.104340 1.398502 2.263414
225 3 6.406020 1.039769 1.654731
226 1 7.422674 11.403833 0.910401
226 2 8.130130 10.855312 0.958440
226 3 7.278429 10.476649 0.670316
227 1 1.599281 0.275766 6.010733
227 2 2.342579 0.323168 5.431670
227 3 2.080535 13.046327 5.762034
228 1 10.488503 8.713293 8.394868
228 2 10.181323 9.588881 8.524576
228 3 10.557798 8.988357 9.276374
229 1 7.204401 11.643876 7.114130
229 2 7.314769 11.504291 6.263830
229 3 6.535730 12.024699 6.505229
230 1 0.367960 6.041620 3.277506
230 2 0.507702 6.839794 2.998238
230 3 13.254823 6.690122 3.581139
231 1 2.491965 11.390702 2.378134
231 2 2.670347 10.671940 2.931441
231 3 2.547836 10.633243 1.878304
232 1 10.322845 0.412402 8.082260
232 2 10.980440 0.193250 8.686514
232 3 11.054849 1.008875 8.196659
233 1 7.162385 4.966980 6.559692
233 2 7.301727 5.852426 6.559539
233 3 6.731131 5.425287 5.753869
234 1 0.491445 8.003783 3.425406
234 2 0.756081 7.839251 2.644671
234 3 13.379603 8.318023 2.881082
235 1 11.196654 10.878144 11.767817
235 2 12.025037 11.041875 12.010784
235 3 11.634072 10.257287 12.297301
236 1 5.069571 9.982205 3.893051
236 2 5.867445 10.453503 3.562565
236 3 4.997592 10.484872 3.175775
237 1 0.684304 0.888365 1.168827
237 2 0.040632 1.072387 1.803737
237 3 0.602912 0.162276 1.797749
238 1 9.200362 1.780397 13.168677
238 2 9.411363 2.620595 13.527061
238 3 8.967658 2.439554 12.612599
239 1 8.615637 10.775642 9.873007
239 2 9.464568 10.696138 9.884408
239 3 8.945733 10.583425 9.028367
240 1 9.682200 8.619548 8.717669
240 2 8.814566 8.516077 8.684193
240 3 9.406950 8.423919 7.845605
241 1 5.787307 0.789486 0.969682
241 2 5.084839 1.296000 1.154263
241 3 4.805509 0.376090 1.038727
242 1 13.020426 10.825732 11.680309
242 2 13.263067 9.936922 11.484576
242 3 12.303512 10.184994 11.381277
243 1 0.360989 6.820879 8.695215
243 2 -0.002061 7.460222 8.158347
243 3 0.318471 6.587806 7.797383
244 1 9.691688 6.895457 7.680522
244 2 10.119010 7.668753 7.420574
244 3 9.470904 7.238574 6.828975
245 1 1.140639 8.039068 7.745500
245 2 1.850860 7.763711 8.249708
245 3 1.354526 7.180604 7.561910
246 1 12.776078 1.303925 5.273176
246 2 12.798012 1.807766 6.042079
246 3 13.390885 1.973977 5.200252
247 1 6.022410 6.123608 7.696748
247 2 6.922307 6.008037 7.642358
247 3 6.295635 5.245916 7.967208
248 1 12.869360 11.042543 13.093278
248 2 12.937986 11.951130 13.254881
248 3 12.049753 11.428841 13.226062
249 1 10.585738 8.856163 12.199603
249 2 10.293095 8.166165 12.818622
249 3 9.660999 8.612636 12.270358
250 1 10.912693 0.594868 2.874787
250 2 11.528292 1.171904 2.608604
250 3 10.515434 1.369558 2.897262
251 1 1.992845 4.623075 6.823240
251 2 2.093058 5.500792 7.110836
251 3 2.824764 4.883647 7.132546
252 1 1.220741 6.642236 5.901859
252 2 1.631718 7.189392 6.404175
252 3 0.784859 6.716029 6.775532
253 1 5.967469 7.875513 4.584078
253 2 6.303723 8.685231 4.265807
253 3 5.618512 8.150464 3.808682
254 1 11.641906 12.759548 6.737641
254 2 11.959408 11.999446 7.127028
254 3 11.132600 11.981983 6.558810
255 1 1.000741 8.652359 6.412211
255 2 1.763668 8.387362 5.919397
255 3 1.612862 8.175298 6.900766
256 1 1.866651 11.831741 4.196714
256 2 1.854355 12.220227 3.406268
256 3 1.027508 11.886704 3.772490
257 1 3.274368 11.152279 5.903698
257 2 3.452851 10.691516 6.635614
257 3 3.008860 10.221892 5.791887
258 1 7.659036 12.495670 10.359979
258 2 7.457200 12.738441 11.262141
258 3 7.350926 11.843955 10.966532
259 1 3.956766 12.883368 12.358576
259 2 4.605071 12.594615 11.894181
259 3 3.958875 11.998920 12.409915
260 1 0.664088 1.638939 1.452238
260 2 0.748324 2.408184 0.991650
260 3 -0.122837 2.017931 1.040866
261 1 8.620669 7.235181 3.097422
261 2 8.697079 8.168578 3.263273
261 3 9.492987 7.567381 3.349507
262 1 12.631466 6.165222 6.784468
262 2 11.882723 6.195953 7.207425
262 3 12.245704 5.338433 6.905300
263 1 0.217501 7.402154 7.261404
263 2 0.621784 7.857123 6.717796
263 3 13.130568 7.695855 6.724947
264 1 10.064226 5.181981 8.511037
264 2 10.218953 6.007040 8.845784
264 3 9.498518 5.896603 8.241861
265 1 9.168249 1.668062 8.944072
265 2 9.655727 2.305254 8.639302
265 3 9.070535 1.848764 7.999712
266 1 6.490021 6.423313 6.065291
266 2 6.747895 7.162512 5.660599
266 3 5.873628 7.161743 6.135436
267 1 12.334891 4.062852 10.383424
267 2 12.158734 4.921507 9.918532
267 3 11.940831 4.105982 9.452600
268 1 0.181222 12.930175 13.900092
268 2 0.186612 0.148826 13.289970
268 3 13.350255 12.871481 13.051581
269 1 11.331506 13.581655 6.403063
269 2 12.024544 0.255006 6.823446
269 3 11.149838 13.676146 7.357724
270 1 13.035792 9.042606 8.024443
270 2 12.532685 9.762834 7.890819
270 3 12.157994 8.814046 7.911510
271 1 12.821955 12.110866 7.743036
271 2 13.010636 12.934504 8.226316
271 3 13.581020 12.042615 8.250150
272 1 11.982553 5.160151 1.727508
272 2 11.820192 5.405877 2.588386
272 3 11.144380 4.978320 2.042851
273 1 2.587181 12.340662 10.553034
273 2 2.722269 12.194759 9.736115
273 3 2.060777 11.653219 10.128138
274 1 1.343393 3.856177 9.224202
274 2 2.039801 4.138525 8.647177
274 3 1.113243 3.835761 8.274496
275 1 7.841641 5.515628 9.105011
275 2 8.262437 6.267529 9.224232
275 3 7.431744 6.286606 8.755592
276 1 6.376715 0.506960 11.808923
276 2 6.769047 13.327470 12.073503
276 3 6.312856 13.417169 11.163251
277 1 7.800467 7.800988 7.874600
277 2 8.334041 8.573426 7.820450
277 3 8.775050 7.627460 7.652395
278 1 7.362425 13.042827 1.736507
278 2 6.920626 0.194762 2.085119
278 3 6.760605 13.480954 1.101095
279 1 11.111840 10.229140 7.111716
279 2 11.823588 10.750455 6.888259
279 3 10.931199 10.948332 6.552168
280 1 1.372860 2.898781 6.107069
280 2 2.217261 3.012610 5.751030
280 3 1.824379 2.097834 5.566966
281 1 1.715228 8.944154 11.960665
281 2 2.172522 8.532691 12.550988
281 3 1.564801 7.997511 12.081276
282 1 3.740137 2.347944 3.703974
282 2 3.036606 2.630769 4.038540
282 3 2.948117 1.784052 3.520357
283 1 13.111136 7.659455 1.469599
283 2 12.976352 8.560413 1.481224
283 3 12.659161 7.915707 2.251235
284 1 5.759180 2.673992 1.602552
284 2 5.716484 3.389244 2.160274
284 3 5.131791 3.277631 1.340916
285 1 7.238156 7.042512 10.774907
285 2 7.833327 7.474046 10.270121
285 3 6.999654 7.163403 9.928439
286 1 0.540093 7.557173 5.076030
286 2 13.412566 6.981034 4.994502
286 3 0.238136 7.337711 4.193035
287 1 5.450863 2.416176 2.478288
287 2 6.383889 2.204495 2.178600
287 3 5.616050 1.643186 1.993708
288 1 11.080828 4.886197 6.888159
288 2 11.732964 4.814294 7.600413
288 3 10.783771 4.646864 7.758789
289 1 3.886736 13.361742 1.446070
289 2 4.186899 13.152233 0.619934
289 3 3.773147 12.446245 1.180900
290 1 2.114167 5.311998 1.653985
290 2 2.558861 5.246216 0.852951
290 3 1.664463 4.860200 0.938391
291 1 0.243699 1.454161 5.970706
291 2 0.992942 0.885231 6.347873
291 3 0.301381 0.594599 5.613031
292 1 6.474466 13.403453 8.008431
292 2 7.321235 13.538678 7.688322
292 3 6.762264 12.818522 7.310330
293 1 6.927513 7.870205 6.479901
293 2 7.024709 8.684644 6.171420
293 3 6.293774 8.122575 5.854715
294 1 2.039261 1.678994 6.441720
294 2 1.939393 2.573722 6.735760
294 3 1.517374 1.963667 7.294345
295 1 8.609655 -0.166325 4.636569
295 2 8.506010 0.663315 4.319450
295 3 7.841272 0.058626 4.076722
296 1 11.667119 12.079899 9.010883
296 2 12.214513 12.355308 9.598565
296 3 12.230616 11.421115 9.371352
297 1 4.639988 7.762275 13.308065
297 2 4.528746 7.158459 0.354546
297 3 4.159026 7.049319 13.002200
298 1 7.193420 0.642307 6.969198
298 2 7.142597 1.522724 7.306913
298 3 6.614100 0.760667 7.667989