ITEM: TIMESTEP
100
ITEM: NUMBER OF ATOMS
1290
ITEM: BOX BOUNDS pp pp pp
0.0 32.8962
0.0 32.8962
-0.1 0.1
ITEM: ATOMS  type x y
3 17.006206 17.437690
1 17.666149 16.685331
3 16.649909 16.454922
1 17.953536 17.683334
3 18.611533 16.968139
1 19.479394 17.344975
1 20.368686 16.616305
3 20.434864 17.600541
1 21.333454 17.002531
3 22.040126 17.675106
2 22.232446 16.822296
1 23.003872 17.293229
1 24.086302 17.324038
3 23.787510 16.436101
2 24.685146 16.689176
1 25.173912 17.403315
3 26.168280 17.060533
1 27.166150 16.800231
3 26.970178 17.694999
2 27.919505 17.442756
3 28.747381 17.069326
2 29.620073 16.712834
1 29.608857 17.624350
1 30.465961 16.959233
3 31.430755 17.078569
1 32.748487 16.861683
1 32.117132 17.757590
3 0.294065 17.760895
2 0.723616 16.971177
3 1.385595 17.651943
1 1.572135 16.702696
3 2.391516 17.371114
1 3.179996 16.837807
1 4.310666 16.964781
2 4.457639 17.899427
3 5.300244 17.706510
1 5.414026 16.752863
1 6.225160 17.494482
1 6.433884 16.460824
3 7.172100 17.409516
1 7.563069 16.528275
3 8.144033 17.415612
1 9.096105 17.395601
3 8.776346 16.526099
2 9.946790 17.018196
1 10.666641 17.444330
1 11.496925 16.717114
3 11.713179 17.635222
1 12.546239 17.053128
3 13.391454 17.539380
1 13.984072 16.713760
3 14.350803 17.686377
2 14.846504 16.956224
1 15.693042 16.644475
2 16.135248 17.392067
1 15.313259 17.736806
1 17.159001 18.359009
2 16.564672 19.072753
3 17.443392 19.207861
1 18.910802 18.191860
2 18.035200 18.528318
1 18.452173 19.383047
2 19.757499 18.176690
3 19.438329 19.044830
1 20.567942 18.547278
2 21.218459 17.917821
1 21.681641 18.627752
1 22.710152 18.335575
2 23.506803 18.015871
3 23.602058 18.900971
1 24.423437 18.336157
1 25.058342 19.230657
2 25.275295 18.429322
3 26.001949 18.969539
1 26.102550 18.040928
2 26.802632 18.544163
1 27.753139 18.285707
3 27.662431 19.218540
3 28.630816 18.041500
2 28.500590 18.954676
1 29.313684 18.744574
2 30.121161 18.348133
1 30.984139 17.925858
3 30.948701 18.850178
2 31.752902 18.565231
1 32.715283 18.702491
1 0.936813 18.572209
1 2.028468 18.443571
3 1.494334 19.309823
2 2.798572 18.137975
2 2.412438 19.251541
1 3.596766 17.787553
1 3.183636 18.898544
3 4.108442 18.704827
1 5.080117 18.628726
2 5.879609 18.343525
1 6.008182 19.294820
1 6.823755 18.491611
2 7.681995 18.210439
1 7.731341 19.110086
2 6.922708 19.376408
1 8.597113 18.379125
1 8.776509 19.494669
2 9.421701 18.803866
3 9.800360 18.018584
1 10.279904 18.903433
3 10.975239 18.319323
1 11.840959 18.733285
1 12.685717 18.119464
3 12.846529 19.167503
1 13.727420 18.453217
2 14.794670 18.411675
3 14.439038 19.235608
1 15.494402 18.907464
3 16.185401 18.225906
1 16.951725 19.964372
3 17.895370 20.148911
1 19.232955 20.114698
1 20.269961 19.598830
2 20.065965 20.452609
2 21.126983 19.272969
3 20.935249 20.224370
1 21.902946 19.805423
1 22.958724 19.631390
2 22.542039 20.443049
1 23.426002 20.616675
1 24.096317 19.795714
2 24.928474 20.110822
3 25.850556 19.966762
1 26.507136 20.677447
1 26.757479 19.493912
1 27.450942 20.268167
1 28.426269 19.886815
2 29.241209 19.626341
1 29.209591 20.572725
3 30.066770 19.332883
2 30.150806 20.270927
1 30.917390 19.801363
3 31.860305 19.480346
3 31.962538 20.510374
1 32.699556 19.874624
2 0.513914 19.399805
1 0.917511 20.164071
1 2.085568 20.069125
3 3.074766 19.915328
2 3.895739 19.524693
1 3.931129 20.431883
1 4.811317 19.696085
2 4.873178 20.566920
3 5.677528 20.284103
1 6.575935 20.164797
3 7.586663 20.007170
3 8.626123 20.407369
1 9.588351 20.670611
3 9.719577 19.708454
1 10.585025 20.210958
3 11.083605 19.367941
3 11.612599 20.356998
2 11.982581 19.585976
1 12.638430 20.198503
1 13.605436 19.692257
2 13.590089 20.552918
1 14.495745 20.282373
2 15.132196 19.726225
3 16.040638 19.737434
1 15.537472 20.549362
1 17.372295 21.013136
3 16.868804 21.806714
1 17.882420 21.914794
1 18.492018 20.957126
3 18.863792 21.838854
1 19.580820 21.176616
1 20.609928 21.223501
3 19.941135 22.123856
1 21.669587 20.871610
3 21.725873 21.863671
1 22.634551 21.333417
3 24.342232 20.828708
2 23.534700 21.512321
1 24.480715 21.822185
1 25.367907 20.868190
2 25.321872 21.761893
1 26.166553 21.699062
3 27.263623 21.255555
3 28.254290 20.884243
1 28.142638 21.846861
3 29.025498 21.544122
3 30.045119 21.190505
3 30.901684 20.718243
1 30.781646 21.768156
2 31.610871 21.319188
2 32.855218 20.717528
1 32.446867 21.626829
1 0.672297 21.252473
1 1.731215 21.067125
3 1.413965 21.948177
1 2.440117 21.833041
3 2.674702 20.858363
3 3.395343 21.488932
3 4.368443 21.275363
2 4.812079 22.011839
1 5.363792 21.245108
2 6.168008 20.958255
1 6.461378 21.789930
3 7.080470 21.048753
1 7.711534 21.744375
2 7.912059 20.903276
1 8.661110 21.338288
3 9.615875 21.598517
2 10.376488 21.140453
1 10.442649 22.072402
1 11.209438 21.243688
3 11.499758 22.160449
2 12.091903 21.068995
3 12.979925 21.190150
1 12.447376 22.025275
2 13.396012 22.009747
1 14.032177 21.304128
3 15.028899 21.400661
3 16.449629 20.795911
1 15.920905 21.624040
1 17.169629 22.752431
3 16.611221 23.597747
3 18.181023 22.853784
1 19.207167 22.767832
2 20.288746 22.921028
1 20.953942 22.327864
2 21.727995 22.774339
1 21.094708 23.351175
1 22.558621 22.391890
3 23.591742 22.367319
2 23.044630 23.122364
2 24.577159 22.711590
1 23.916528 23.285559
1 24.942898 23.563986
1 25.458517 22.572898
2 26.350051 22.597454
1 26.036004 23.496040
1 27.135632 22.201305
3 27.019118 23.186026
1 27.938758 22.937063
3 28.837724 22.576033
2 28.731877 23.441703
1 29.808790 22.100678
2 29.595168 22.984173
3 30.562844 22.714200
1 31.419615 23.201464
3 31.614102 22.257892
1 32.442073 22.767172
1 0.503822 22.245456
3 0.462272 23.251685
2 1.199638 22.770426
1 2.100382 22.930393
3 3.033833 22.611152
1 3.055487 23.531646
2 3.830546 23.098988
1 4.001642 22.215883
1 4.676928 23.115737
3 5.515992 22.459354
2 6.358694 22.757221
1 5.767472 23.395839
3 7.160759 22.504012
1 6.908828 23.549289
1 8.017075 23.157425
3 8.526181 22.324643
2 8.851316 23.143989
1 9.493726 22.564549
2 10.242242 22.974517
1 9.620248 23.601245
2 12.016945 22.880458
1 11.160138 23.055505
3 12.863954 22.846065
1 13.852132 22.875870
3 14.450140 22.205789
1 14.988090 22.981429
2 14.334133 23.596296
2 15.292081 22.176493
1 16.039703 22.662192
2 15.718075 23.561363
1 17.684763 23.740840
1 17.161580 24.743437
2 18.048061 24.520081
1 18.831489 23.844687
1 18.812539 24.927858
1 19.915243 23.692697
3 19.700133 24.594147
3 20.660140 24.314740
2 21.560009 24.096093
3 22.356290 24.592278
1 21.396032 24.949277
1 22.224722 23.496440
1 23.279467 24.135054
2 24.273688 24.138913
3 23.909513 24.970463
1 24.892845 24.831127
2 25.515786 24.181374
1 26.085513 24.818625
2 26.662711 24.084981
1 27.567335 23.970575
3 27.059007 24.833866
2 27.892544 24.833669
1 28.667253 24.346423
3 29.470457 23.983628
1 30.358840 23.636049
2 29.389891 24.847125
3 30.293612 24.718332
3 31.270542 24.133533
1 32.218975 24.677828
3 32.263257 23.707918
1 0.259014 24.173254
1 1.283617 23.745706
1 1.975086 24.629334
3 0.949891 24.780868
2 2.246617 23.799712
3 2.920427 24.461305
1 3.965537 24.012155
2 4.418904 24.757188
1 5.003747 24.113702
1 6.080899 24.414767
3 5.263123 24.966471
2 7.796786 24.010114
1 7.189671 24.592658
1 8.692028 24.031444
3 8.028482 24.923781
2 8.935975 24.888415
3 10.519863 23.857161
1 9.814549 24.666374
1 10.956317 24.702473
2 11.487308 23.975921
1 12.026719 24.676926
1 12.332908 23.682420
2 13.266608 23.682654
3 12.962769 24.511643
1 13.875718 24.304147
1 15.024635 24.158626
1 16.089671 24.373973
2 15.362171 24.974201
1 17.051323 25.855031
2 17.816173 26.269884
3 17.898014 25.373896
1 18.671883 26.013901
3 19.515557 25.580038
2 20.362458 25.181028
1 20.237471 26.110647
2 19.476166 26.427339
3 21.108622 25.831294
2 23.067212 25.131247
1 22.342646 25.585031
1 23.481527 25.857721
3 22.696597 26.503081
1 24.639474 25.831246
3 25.622180 25.630868
1 26.149271 26.336020
2 26.564295 25.542321
1 27.484659 25.705746
3 28.555497 25.458756
1 29.521492 25.692150
2 30.402746 25.607107
1 31.152293 25.163460
1 32.052745 25.779740
1 31.024701 26.215510
3 0.076856 25.250137
2 -0.089645 26.197707
1 0.859549 25.821036
2 1.733863 25.451253
1 1.851003 26.325424
1 2.652807 25.516442
1 3.608521 25.061745
1 4.531485 25.689127
3 3.476892 25.999629
1 5.584198 25.851531
3 6.513676 25.256695
1 7.461913 25.697239
1 6.572396 26.275028
3 7.523908 26.650757
1 8.616880 25.783152
2 9.212062 26.488062
3 9.476989 25.586653
2 10.299896 25.400298
1 10.119392 26.324550
1 11.109326 25.761650
2 11.958124 25.551335
1 11.967501 26.450521
1 12.799209 25.535604
2 12.878325 26.412438
2 13.601036 25.203681
1 14.495365 25.200017
1 13.785131 26.071899
2 14.680044 26.053310
3 16.321003 25.333986
1 15.491876 25.794445
2 16.225534 26.312429
3 16.996912 26.786285
1 17.811268 27.257087
2 16.985676 27.687385
1 18.884063 27.049179
2 18.505085 27.793182
1 20.026703 27.185574
2 20.834137 26.755705
1 21.764312 26.567756
2 22.017221 27.371339
1 21.173597 27.567077
1 22.878917 27.425817
2 23.555607 26.798637
1 24.473798 26.884701
3 23.867815 27.620075
2 24.741145 27.732807
2 25.247513 26.447863
1 25.556415 27.283630
2 27.134240 26.467304
3 26.563070 27.181509
1 27.538158 27.238755
3 28.129303 26.524953
2 28.466849 27.398728
1 29.105674 26.751098
3 30.045181 26.480949
1 29.915539 27.502346
3 30.768528 27.166054
1 31.465524 27.776795
1 32.061590 26.834525
3 0.227693 26.961629
3 32.495078 27.735506
2 1.056111 26.680970
1 1.265079 27.487741
1 2.333612 27.266188
2 2.707580 26.435409
3 3.262592 27.061232
1 4.131683 26.694542
3 4.833536 27.373993
2 5.006056 26.505021
1 5.766589 26.946797
2 6.684174 27.118490
1 7.466412 27.597541
1 8.408518 26.924680
1 9.545317 27.287923
3 10.500592 27.385996
2 11.014791 26.618430
1 11.422687 27.419893
3 12.496625 27.232570
1 13.430799 27.113397
1 14.419045 26.893592
3 14.155632 27.833098
3 15.421442 26.756764
1 16.194695 27.303263
1 15.151763 27.757284
1 16.903578 28.617429
3 17.710371 28.182590
1 17.850619 29.138965
1 18.786662 28.604526
3 19.403894 27.862048
3 20.329436 28.076783
2 19.634303 28.650552
1 20.460707 29.020479
2 21.137465 28.429918
1 22.084696 28.244454
1 21.539208 29.194092
1 23.179461 28.455939
3 22.512288 29.244967
1 24.294133 28.480167
3 23.627767 29.300953
1 25.393062 28.440607
2 26.172223 28.014358
2 25.622778 29.315015
1 26.446840 28.903109
3 27.037091 28.069810
2 27.375725 28.881352
3 27.989618 28.140497
1 28.948847 28.145943
1 28.229743 29.098549
2 29.115043 29.004104
3 29.855100 28.474432
2 30.643723 28.052497
3 30.899824 28.946290
3 31.865576 28.686068
1 32.893141 28.631406
2 0.478227 27.903770
1 1.037657 28.629677
3 1.884909 28.189177
2 1.816258 29.057507
3 2.972642 27.987509
1 2.638497 28.846443
1 3.966433 27.770847
1 4.924224 28.337730
3 3.645522 28.713739
2 5.671058 27.891443
2 5.159700 29.193057
3 5.891109 28.729175
1 6.498588 28.023347
3 7.447744 28.607299
2 6.726856 29.171081
1 8.436961 28.064395
2 8.255061 28.965946
1 9.101702 29.029891
2 9.300399 28.127658
1 10.134109 28.386199
2 9.955164 29.280367
3 11.252748 28.352123
1 10.833733 29.213849
1 11.914405 29.214925
1 12.235479 28.188055
2 13.196402 28.004888
3 12.808784 28.863126
1 13.715459 28.664306
2 14.759268 28.517191
3 14.493787 29.339881
3 16.015168 28.223686
1 15.424324 29.095936
2 16.280395 29.180505
3 17.015132 29.662608
2 16.896380 30.492785
2 18.646330 29.511419
3 17.937177 30.099689
3 18.972692 30.302338
1 19.483293 29.463218
1 19.897075 30.563345
1 20.969307 30.154289
3 21.918244 30.082268
1 22.986426 30.100999
3 24.785998 29.442626
1 24.121373 30.211724
3 26.284192 29.856281
1 25.320589 30.200605
1 27.301510 29.743311
3 27.426887 30.697982
2 28.118162 30.020725
1 28.967299 29.961042
3 29.873039 29.459671
1 30.714561 30.049217
2 29.778657 30.349652
2 31.513865 29.581855
1 32.016471 30.331529
3 32.426791 29.478987
2 0.469649 29.396881
1 0.143185 30.217019
1 1.271063 29.726086
3 1.016557 30.775183
1 1.934243 30.603489
3 2.336579 29.784416
1 3.305012 29.801170
2 2.842973 30.562949
1 4.305882 29.372498
2 4.058746 30.294488
3 4.911878 30.119875
1 5.927328 29.692254
1 7.531673 29.483181
1 6.881158 30.324430
2 7.737583 30.333415
3 8.478656 29.833335
1 8.460942 30.813807
1 9.396531 30.130096
3 10.381754 30.051240
2 11.361153 29.948213
2 12.674337 29.727849
3 13.527570 29.603087
1 12.103386 30.429398
3 13.074903 30.532040
3 14.139026 30.391447
1 15.074172 30.173691
1 16.111199 30.045260
3 17.399329 31.215425
1 18.369640 31.033233
2 19.302160 31.197913
2 17.987431 31.840774
1 18.889829 31.971931
2 20.643147 31.029955
1 20.031136 31.724479
1 21.619915 31.124991
3 21.011469 31.824624
2 21.839954 32.040270
2 22.432092 30.732519
3 23.382367 30.971184
1 22.632773 31.561098
3 24.704462 31.052292
1 24.019363 31.724249
2 25.543682 31.034500
1 26.399834 30.801970
1 25.155521 31.901020
3 26.142319 31.696043
2 26.973537 31.470605
1 27.857165 31.609662
3 28.434903 30.823822
1 29.343005 31.121357
3 28.802325 31.932115
3 30.279358 31.039404
1 29.930283 31.967251
2 31.224914 30.762544
3 32.049224 31.280773
3 31.056632 31.655269
2 32.919011 31.086396
3 32.743196 31.971643
1 0.748312 31.670873
2 1.600435 31.471638
3 2.498164 31.358040
1 3.541159 31.043300
1 4.662304 31.036648
2 4.075261 31.763882
3 4.960627 31.927340
1 5.730112 30.838949
2 5.862173 31.784241
3 6.621388 31.272390
1 7.523641 31.254660
1 6.580879 32.208206
1 9.210385 31.456425
2 8.398110 31.829675
2 9.914601 30.845516
1 10.326477 31.611289
1 11.049754 30.828439
2 11.838206 31.271237
3 11.206420 31.874985
1 12.082605 32.105352
1 12.861909 31.400018
2 12.913432 32.334762
2 13.721278 31.110112
1 14.695804 31.218797
1 13.827859 32.004883
2 14.781735 32.068634
1 16.400355 31.237302
2 15.563065 30.886135
3 15.620036 31.768464
1 17.144387 32.247365
2 17.307172 0.222637
3 18.112676 32.698117
1 17.939619 0.818363
1 18.992539 0.448450
3 19.596780 32.584279
2 20.511939 32.551428
1 20.234645 0.456478
1 21.361902 32.748366
2 21.974263 0.487629
1 22.464747 32.637228
2 23.264433 32.157989
1 23.609817 0.047306
3 24.447803 32.542746
1 24.708856 0.588173
2 25.286148 32.746085
1 26.176736 32.624842
3 25.796319 0.576067
3 27.113180 32.325764
2 26.707698 0.422696
1 27.597208 0.421234
2 28.020572 32.462618
1 28.794936 0.105017
1 29.980755 0.258000
1 30.860143 32.551711
1 31.852336 32.254173
2 30.795534 0.504317
1 31.674703 0.421643
2 32.487985 32.825122
1 0.428494 32.695440
2 1.251837 32.397445
1 2.094956 32.204657
2 0.824892 0.618771
1 1.641286 0.287616
1 3.216341 32.170770
2 2.592012 -0.016712
1 3.358070 0.468314
1 4.256773 32.722803
2 4.977627 0.318381
1 5.617155 32.651153
2 6.256998 0.368776
3 7.605063 32.270733
1 7.064601 0.198735
1 8.898196 32.532737
3 8.021112 0.345569
2 8.895253 0.514493
2 9.749343 32.274410
1 10.564959 32.727429
3 9.709327 0.226060
2 10.379658 0.726183
2 11.477315 32.723729
1 12.323601 0.224805
1 13.429617 0.177407
3 14.443707 0.005809
2 16.281470 32.330311
1 15.392509 32.667337
1 16.389804 0.300395
3 17.042192 1.092125
1 16.636415 1.949400
1 17.796654 1.881162
2 18.576383 1.431913
1 19.461207 1.358325
2 20.404787 1.309092
1 21.241574 0.939317
3 22.091732 1.371712
1 21.092036 2.078486
3 22.831746 0.621543
3 23.014933 1.699347
1 23.793841 1.086978
3 23.930416 2.092230
2 24.634727 1.557980
1 25.531010 1.559389
1 26.606710 1.312696
1 27.700572 1.467352
2 28.389836 0.905370
3 29.328262 0.908140
3 28.541807 1.850040
1 30.296457 1.254824
1 29.477721 1.939914
3 31.254328 1.351114
2 32.100793 1.274888
1 32.848834 0.880924
1 32.608162 1.994204
3 0.610843 1.639404
1 1.478455 1.289209
3 2.488641 0.874158
1 2.357329 1.796612
2 3.148085 1.452873
3 4.257670 0.773604
1 3.985246 1.738794
2 4.808532 1.480828
1 5.554902 0.958730
3 5.684105 1.836559
1 6.594081 1.205471
2 7.445263 1.082841
1 7.640373 1.937589
1 8.336953 1.191830
3 8.705476 2.050645
1 9.576628 1.156238
1 10.481139 1.620047
1 11.282975 0.686194
2 12.062856 1.096596
1 11.534196 1.821215
1 12.925631 1.149023
1 12.576873 2.133557
3 13.635031 1.893152
1 14.046305 1.016445
3 14.683870 1.752229
1 15.153762 0.874760
2 16.110383 1.087093
1 15.621600 1.819516
3 16.942941 2.951405
1 18.865897 2.326662
1 17.914640 3.008555
3 18.872874 3.422260
3 20.079074 2.108524
1 19.731381 3.026524
2 20.657988 2.815148
1 21.436049 3.160565
1 22.227186 2.266477
2 22.280134 3.178844
1 23.200047 2.835459
1 24.916802 2.427469
2 24.215636 2.912643
3 24.952680 3.474128
3 26.205483 2.249384
2 25.688984 2.929527
2 27.104617 2.120934
1 27.889061 2.651949
1 26.766304 3.023246
2 27.576461 3.522480
3 28.893179 2.809725
3 30.572881 2.224268
2 29.849135 2.739233
1 30.610947 3.258334
1 31.523745 2.346452
2 31.494533 3.232690
3 32.333898 2.916758
2 32.891484 3.574468
1 0.552779 2.874781
2 1.370287 2.198858
3 1.505039 3.119828
2 2.277659 2.678079
3 3.196417 2.440224
1 2.408472 3.596748
1 3.505951 3.356218
2 4.069916 2.654925
1 4.912026 2.418974
3 4.564805 3.391877
2 5.815023 2.669339
1 6.587870 2.279894
3 6.504355 3.201714
2 7.292258 2.835419
1 8.183848 2.941470
3 9.155220 3.099336
1 9.690700 2.308284
3 10.724057 2.509318
1 10.138734 3.441349
3 11.153306 3.553005
3 11.768626 2.778301
2 12.485810 3.225000
3 13.275647 2.877092
1 14.211288 2.662524
2 13.931940 3.474841
1 14.847641 3.499980
2 15.119627 2.597253
1 15.891651 2.980094
2 17.395154 3.680465
3 16.511009 3.765407
1 17.157118 4.609451
1 18.176715 4.066235
3 18.012440 5.005441
2 18.881754 4.543198
1 19.592285 4.092997
1 20.601131 3.704019
2 20.363367 4.544590
3 21.888936 3.966469
1 21.191230 4.586165
1 22.829974 3.849634
1 22.363863 4.840373
3 23.453106 4.598939
3 23.734983 3.633299
1 24.481770 4.284262
1 26.013103 3.695895
2 25.395913 4.296487
3 26.191439 4.872886
3 26.835350 4.141179
2 27.049795 5.008402
1 27.765449 4.453359
1 28.482721 3.618670
3 28.723479 4.591123
1 29.580661 3.595146
2 30.270730 4.157212
1 29.586875 4.717585
1 32.105080 3.915621
3 31.141329 4.080273
2 31.826712 4.751107
1 0.079976 4.464067
3 0.835649 3.846336
1 1.112535 4.823601
2 1.701252 4.124869
1 2.342349 4.669766
2 3.104159 4.178432
1 3.445713 5.100446
3 4.060955 4.240891
2 5.005182 4.206801
1 4.539479 5.069718
1 5.495525 3.483360
1 5.588426 4.890587
1 7.394316 3.762901
1 6.402328 4.118919
2 7.252453 4.626258
2 8.250221 3.797851
1 9.158905 4.070420
1 8.192847 4.643439
3 9.298760 4.964547
1 10.279449 4.491882
1 11.962233 3.945414
2 11.153517 4.464597
3 11.962517 4.888852
1 13.094608 3.875572
1 12.930585 4.957206
1 14.069057 4.374861
2 15.669767 3.814881
3 15.043984 4.483102
1 15.977493 4.603915
2 17.285549 5.515295
3 16.438868 5.490126
1 16.991371 6.316808
1 18.861845 5.457437
1 18.017733 6.074681
2 19.126587 6.270971
3 19.683146 5.089643
3 20.675846 5.388467
1 19.973686 5.988388
2 21.632702 5.324670
1 21.239658 6.199768
1 22.278532 5.953253
1 23.280304 5.527498
3 24.274408 5.188491
3 24.062399 6.204393
2 24.916618 5.910589
1 25.218815 5.119818
3 25.781770 6.115570
1 26.674897 5.778657
3 27.692938 5.699246
1 28.700678 5.544602
1 30.676793 4.995795
1 29.808404 5.734689
2 30.652498 5.951615
3 31.500110 5.551917
2 32.157107 6.275068
1 32.415553 5.414343
2 0.383105 5.258942
3 0.123227 6.147110
3 1.833811 5.467875
1 1.024528 5.929070
1 2.198736 6.339840
2 2.689559 5.576818
1 3.298354 6.264376
2 4.045059 5.798671
3 5.122201 5.828755
1 6.058335 6.219411
1 6.600996 5.204714
3 7.585496 5.471922
2 6.943394 6.049215
3 7.712472 6.449720
1 8.512259 5.689915
2 10.172982 5.342785
3 9.422222 6.005457
1 10.362239 6.234884
1 11.037579 5.390812
3 11.356304 6.361947
1 12.188873 5.829564
1 13.233960 5.951073
2 13.785235 5.267056
1 14.674196 5.410607
3 14.132268 6.126674
2 14.983795 6.376524
2 15.531725 5.398613
1 15.824028 6.233424
1 17.680542 7.217158
3 18.612303 6.905111
2 18.380480 7.781579
1 19.238013 7.658528
2 20.565586 6.755269
3 19.725055 6.886406
1 20.319859 7.628692
1 21.309866 7.222668
3 21.992631 7.885975
1 23.209507 6.680656
3 22.226276 6.909454
3 22.989402 7.604925
1 24.015474 7.408516
1 25.049449 6.824231
2 26.447981 6.742231
2 25.130526 7.767484
3 25.869987 7.377393
3 27.256230 6.566109
1 26.922812 7.531331
2 27.771441 7.303959
1 28.254213 6.510164
3 29.241733 6.564030
3 28.626044 7.457741
1 30.194732 6.705233
1 29.490079 7.652003
1 31.307963 6.534603
1 30.739703 7.592742
3 31.659895 7.342528
1 32.603981 7.048723
2 0.316611 7.769789
1 0.743719 7.002721
3 1.146610 7.825523
2 1.731316 7.096716
1 2.109766 7.915122
3 2.705204 7.135289
1 4.422051 6.545115
3 3.696587 7.154727
1 4.627285 7.551234
2 5.285851 6.756790
1 5.902669 7.387460
3 6.752656 6.878259
3 6.818314 7.871147
2 7.497871 7.318456
2 8.637048 6.547678
3 8.454802 7.388121
2 9.220830 7.823361
1 9.400338 6.966086
3 10.112676 7.647921
1 10.986397 7.306285
2 11.837588 7.098959
3 12.652523 6.687011
2 13.542855 6.769826
3 12.521354 7.664590
1 13.480616 7.703303
1 14.424213 7.121467
3 16.352668 7.026192
3 15.367666 7.146820
1 16.813785 7.977389
2 17.021438 8.817221
1 17.877313 8.503433
3 18.778689 8.551266
2 19.795933 8.358366
3 19.596242 9.215840
1 20.499007 8.791833
2 21.063827 8.091378
1 21.641644 8.765242
1 22.738499 8.484226
2 23.618376 8.222296
1 23.634851 9.135427
1 24.482016 8.376586
1 25.920161 8.301929
2 25.295207 8.904019
3 26.139749 9.296106
1 26.895844 8.695992
2 27.670870 9.027503
1 27.904486 8.191795
2 28.906124 8.256896
1 28.548343 9.047080
2 30.163229 8.214829
1 29.573838 8.785783
2 31.387846 8.214353
1 30.716562 8.879200
3 31.735529 9.003727
1 32.329705 8.164125
2 32.588271 8.996385
1 0.601874 8.587819
2 1.506876 8.627494
1 2.388274 8.893823
3 3.086197 8.203562
2 3.891361 8.027354
1 3.764498 8.915529
3 4.675546 8.487715
2 5.436178 8.075498
3 5.480637 9.159472
1 6.167418 8.490474
1 7.812312 8.138277
2 7.020212 8.728120
1 7.763668 9.212101
3 8.649365 8.491016
1 9.584438 8.547063
3 11.613592 8.018050
1 10.742392 8.444153
2 11.559543 8.956063
1 12.365610 8.632606
3 13.288521 8.692858
2 14.284409 8.002562
1 14.343242 8.850779
1 15.121644 8.140521
2 15.975623 7.820085
2 15.235923 9.016336
3 16.095419 8.722775
3 17.611254 9.500038
1 17.185384 10.503085
3 16.600694 9.622738
1 18.647264 9.462257
3 18.231493 10.468122
3 19.290252 10.186353
1 20.266136 9.883574
2 21.065619 9.544236
3 20.951095 10.474142
1 21.829499 9.971417
2 22.386558 9.289934
1 22.956955 9.951988
3 24.545402 9.405282
2 23.898186 9.967649
3 24.581144 10.588179
1 25.360226 9.797718
2 25.467251 10.657624
1 26.328036 10.351989
1 27.091292 9.706174
2 27.235723 10.554861
1 28.141674 10.091575
1 29.196148 9.891938
2 29.874573 10.543881
3 30.274224 9.721892
1 31.241565 9.902153
3 31.869894 10.741473
1 32.305523 9.820148
3 32.914406 10.701991
3 0.338806 9.575314
1 1.290959 9.499789
2 0.848778 10.293678
1 1.736379 10.488295
3 3.076240 9.597923
2 2.231345 9.754880
1 2.820818 10.494559
2 4.486140 9.363836
1 3.981435 10.044455
1 5.028476 10.037361
2 5.864737 10.081608
1 6.556101 9.472554
1 6.622851 10.583911
2 7.347625 10.059220
1 8.858328 9.369691
3 8.237071 10.078714
3 9.783791 9.499698
1 9.363386 10.330333
2 10.285044 10.255245
1 10.733271 9.484609
1 11.936920 9.745365
3 11.227132 10.461632
2 12.774811 9.432114
2 12.104555 10.613389
1 12.922492 10.262493
3 13.634623 9.626276
1 13.989228 10.541836
3 14.670971 9.731317
2 15.049191 10.507860
2 16.282300 10.402282
1 15.652479 9.810863
1 16.964090 12.086469
1 17.913803 11.458042
3 16.615473 11.239218
1 18.943082 11.137254
2 18.595537 11.975465
1 19.984186 10.958312
3 19.525057 11.944097
1 20.462542 12.129514
2 20.795405 11.342132
1 21.671978 11.054625
3 21.418699 12.028350
3 22.642980 10.921794
2 22.280811 11.762681
1 23.156849 11.886724
1 23.636263 10.821517
3 24.160110 11.623974
1 25.117463 11.403836
3 26.104791 11.268100
2 26.474639 12.036708
1 27.089207 11.423621
1 28.882671 11.017702
3 27.943714 11.061114
1 28.263331 11.926344
2 29.101855 11.925932
1 29.892756 11.469444
3 30.783225 10.919001
3 30.770419 11.981599
2 31.490929 11.512961
1 32.378653 11.511396
2 0.352143 11.542212
3 1.184620 11.242554
3 1.919350 12.145522
2 2.216410 11.213896
1 2.881298 11.826186
3 3.638113 11.017155
1 4.546588 10.971017
1 4.078853 11.967821
1 5.660781 10.991988
1 5.179702 11.872848
2 6.106526 11.788394
1 7.745488 10.925955
3 7.008297 11.536369
2 7.562485 12.263323
2 8.677197 10.858644
3 8.282688 11.669951
3 9.387570 11.359414
1 10.464037 11.117297
1 9.933494 12.102768
3 10.933853 12.042254
1 11.571205 11.327892
3 12.011148 12.161866
1 12.626038 11.322129
2 12.925107 12.165141
3 13.628463 11.621112
3 14.596766 11.312594
1 15.670430 11.162083
2 16.087982 12.010459
2 17.138366 12.944326
3 17.856060 12.412131
1 17.931542 13.322155
1 18.870579 12.763219
2 19.782783 12.777962
1 19.648146 13.665159
3 20.590986 13.137389
2 21.404728 12.876756
2 22.150412 13.478083
2 23.110702 12.791549
1 22.262485 12.627822
2 24.743169 12.216686
1 23.922560 12.600755
1 24.930074 13.104485
3 25.639670 12.274568
3 25.734263 13.525046
1 26.458425 12.911192
3 27.271971 12.338780
2 27.340725 13.254765
3 28.095002 12.861433
1 28.999735 12.826186
3 29.819858 12.422380
2 29.869657 13.293132
1 30.653434 12.912618
1 31.729283 12.436927
3 32.912226 12.323734
1 32.456583 13.342390
3 0.467702 13.261597
1 0.924950 12.191745
3 1.439848 13.024275
1 2.505036 12.919569
1 3.544879 12.887209
1 4.797293 12.972334
2 5.463197 13.548569
3 5.701992 12.688230
1 6.372963 13.492572
1 6.718415 12.456652
3 7.391160 13.112070
2 9.067285 12.132360
1 8.382997 12.667816
1 9.403014 13.103850
3 10.434178 13.009356
1 11.431561 12.908403
1 12.529921 12.971743
2 13.211701 13.565199
2 14.231851 12.198707
1 13.560291 12.738185
3 14.525611 13.034567
1 15.189718 12.192616
1 16.247079 12.876658
2 15.413685 13.100136
1 16.928176 13.771850
1 17.225525 14.827663
2 18.744896 13.597127
3 17.973944 14.262315
3 19.006727 14.440403
1 19.902784 14.755057
2 20.481375 14.023880
1 21.316019 13.772490
3 20.924481 14.756420
3 22.098216 14.399054
1 22.975127 13.623268
1 23.479887 14.636298
1 24.054717 13.733751
1 24.532405 14.744563
2 24.901437 13.966848
1 25.667379 14.477471
1 26.734652 13.953247
3 27.327396 14.761358
1 27.779290 13.956487
2 28.615995 13.589644
3 28.497831 14.505196
1 29.389950 14.093605
1 30.342149 14.917867
3 30.467088 13.951971
1 31.398937 13.597000
2 31.333024 14.517427
3 32.243149 14.225182
1 0.279933 14.222965
2 1.098648 13.922715
1 1.173812 14.865591
1 1.946845 13.923973
2 2.045624 14.876223
2 3.129770 13.685076
1 2.862568 14.530817
2 4.111023 13.520304
3 3.765202 14.366521
1 4.752594 14.056781
1 5.814337 14.347572
2 6.671790 14.390053
1 7.486131 14.091024
3 7.253498 15.017646
3 8.416108 13.670403
3 9.139508 14.280851
1 8.380579 14.829263
1 10.123127 13.996376
2 11.917297 13.632156
1 10.909542 14.869151
3 11.034562 13.875480
3 11.748720 14.484646
1 12.663732 14.220358
1 13.359553 15.099885
1 13.841315 14.153020
1 14.420732 15.003421
1 14.951799 13.947846
2 16.383690 14.614974
3 15.936726 13.794904
1 15.522630 14.844534
3 17.487217 15.741325
1 16.423455 15.517494
1 18.250979 15.160125
2 18.332779 16.091987
1 19.212370 16.237426
2 19.133357 15.280356
3 19.978408 15.740114
2 21.690721 15.224475
1 20.923554 15.734790
3 21.843369 16.033755
3 22.640271 15.230740
1 22.869250 16.174125
2 23.476464 15.568577
1 24.409441 15.793053
3 25.417074 15.401370
1 25.488394 16.272692
2 26.388325 16.211828
1 26.391501 15.252624
3 27.182012 15.761273
3 28.047068 16.376381
1 28.115786 15.402964
1 29.000121 16.110127
3 29.410668 15.181904
3 30.145403 16.026783
2 30.962948 16.261439
3 31.141393 15.389709
1 32.142219 15.145279
1 31.814204 16.178513
2 32.639739 15.911408
3 0.255622 15.180014
1 0.721941 16.029282
3 1.691197 15.740731
2 2.382922 16.419341
1 2.627191 15.634399
2 3.476923 15.207260
1 3.808177 15.992599
1 4.393385 15.113673
3 4.816320 16.051413
3 5.359433 15.141984
2 5.730953 15.923585
1 6.360877 15.262353
2 7.035013 15.839744
3 7.951922 15.696595
2 8.892334 15.620496
1 9.667760 15.137564
3 10.593376 16.420228
1 9.674053 16.205407
2 10.374137 15.608313
3 11.363040 15.725778
2 12.212083 16.259148
1 12.298179 15.321161
1 13.083502 16.149170
2 13.948791 15.796428
1 14.791223 15.996569
2 15.639634 15.802786
