1000
Lattice="11.262478804436059 0.0 0.0 0.0 11.262478804436059 0.0 0.0 0.0 11.262478804436059" Properties=:species:S:1:pos:R:3 Time=1000
2 6.546606 5.931999 7.534774
2 5.260658 5.349521 7.546327
2 5.828719 6.008628 8.696459
2 6.119762 5.610023 9.670199
2 6.976454 5.871650 10.781754
2 6.019742 7.230922 -0.193871
1 6.395995 5.208081 0.867114
2 6.843700 6.133680 3.292277
2 5.827421 6.054188 4.012363
1 6.376952 6.717614 5.702069
1 5.886980 8.003602 5.738567
1 5.962557 6.971004 6.585279
1 5.008255 7.294559 7.234647
2 6.291565 8.019482 9.448231
1 5.196890 7.364000 9.818349
2 6.100773 6.445201 0.583196
1 6.084930 6.590082 2.357122
1 5.742547 7.522433 3.787326
1 6.828580 7.165658 4.133360
1 5.623779 9.331796 5.003311
1 5.884429 7.986304 7.420832
2 6.119875 7.366171 8.240313
1 7.116839 7.665885 8.875519
2 7.145580 8.947082 9.474298
1 4.763652 7.985935 10.728567
2 7.307670 7.761878 0.117135
1 5.447700 8.223250 1.815896
1 6.763475 8.304069 2.415356
2 5.574559 8.310887 3.191534
1 6.815001 8.521181 5.266272
2 6.135525 9.158530 5.895256
1 6.844453 9.144763 6.886636
1 6.458015 8.344393 8.519166
1 7.430549 10.016672 8.876723
2 6.375726 8.961002 11.172273
2 5.294575 9.705774 -0.234331
2 6.210503 9.248257 1.560510
2 6.221898 9.352383 2.778105
1 5.614190 9.240850 3.730687
1 6.081173 10.348333 4.905072
2 6.637100 10.625593 6.342247
1 5.819845 10.152757 7.713275
1 6.390122 10.335046 8.545943
1 5.894071 10.305969 10.451715
2 4.563599 10.093754 10.289971
2 5.979826 9.750348 0.640538
2 5.495370 11.093300 2.551871
2 6.551720 10.681055 3.091192
1 5.214611 11.079450 4.957367
2 5.360901 11.137046 6.604306
2 6.288050 0.696037 6.384485
1 7.342846 0.552778 7.319608
1 6.272456 0.126509 8.385709
1 5.438688 0.506838 8.758830
2 6.169946 0.034308 10.552852
1 5.907461 -0.673664 0.204289
2 6.517682 0.685268 3.076917
2 6.555700 -0.007610 1.936473
2 7.112482 1.591236 4.287790
2 6.036067 0.375328 4.817420
1 6.536470 1.860796 6.131834
2 6.668072 3.081905 7.559805
1 6.190286 2.056014 8.428147
2 6.264292 2.331957 9.504452
2 5.847260 0.321429 11.830667
2 6.264630 1.521022 0.124499
1 6.040671 1.964243 1.966346
2 5.370965 1.140148 2.951234
1 6.044462 1.323058 3.893100
2 6.114692 2.272188 5.125418
2 5.526473 2.585094 6.161964
1 5.442519 3.135405 7.811239
2 5.389527 2.617040 8.806375
2 6.287244 2.970054 10.329178
1 6.082066 1.411167 10.297422
1 5.881438 2.699619 0.969966
2 6.812981 2.968688 2.114386
2 5.238686 2.668328 2.616567
1 6.188905 2.985289 4.370608
1 6.691904 3.922602 5.348146
2 7.042194 2.866575 6.448345
2 4.889635 4.161982 8.696140
2 5.921237 3.881484 8.460596
2 6.710171 4.135501 9.497099
1 6.398889 3.640262 11.284008
1 5.625768 4.371684 0.727496
2 5.602335 3.384783 1.775674
2 7.255983 3.987537 1.928557
2 6.477315 4.082328 2.699038
1 6.302135 4.412182 4.358505
2 6.607800 3.844985 6.524805
2 7.456653 5.284087 6.740299
2 6.396269 5.025371 8.582875
1 5.690774 4.416627 9.343500
2 5.998194 4.112847 10.391437
1 6.445238 4.755416 -0.181118
1 6.083640 4.381662 1.506439
2 5.848901 5.181072 2.224016
2 5.873095 4.785643 3.326038
2 5.916458 5.102461 5.008876
1 6.823450 5.022959 5.755611
1 6.564525 6.934158 7.327441
2 6.834987 6.200251 8.562583
2 7.285193 6.458140 9.629892
2 7.609531 6.927327 10.650932
2 7.173560 6.675449 0.404361
2 6.885913 6.226108 1.454173
1 6.920153 5.061279 2.614679
1 8.132818 5.023115 4.210542
1 7.777333 6.654314 4.766372
1 8.072518 7.167293 6.071360
1 7.720265 7.539798 7.190216
2 6.173309 6.728110 9.422899
2 8.305900 6.876779 9.461788
1 6.694555 7.250626 10.185988
1 8.186620 6.749850 0.375163
2 6.856085 7.348387 1.124117
1 6.199092 7.520483 2.857897
1 7.737330 6.757804 3.504114
1 6.477872 7.508466 5.071529
2 7.123251 7.759985 6.340601
2 7.945355 8.974519 7.526891
2 7.080543 8.148301 7.581245
1 7.356230 7.987268 9.881414
1 8.388969 7.780846 11.350194
2 6.409580 8.329679 0.971853
1 7.275376 8.782216 1.522567
2 7.434502 7.839453 3.470679
1 8.309118 7.896014 4.000464
2 7.892736 9.138677 5.069274
1 7.429212 8.981298 5.971297
2 6.474217 9.388856 7.990102
2 8.344687 9.536870 8.332150
1 7.449532 9.916483 10.099040
1 7.304066 8.780531 10.735498
2 7.204555 9.788527 1.020828
1 7.018634 9.906829 2.203218
1 7.045999 9.766477 3.391477
1 8.193879 9.741222 4.201761
2 8.321824 10.360967 5.413979
1 7.853992 10.169316 6.606552
2 6.979713 10.411111 7.349370
2 7.332234 11.509644 8.325120
2 7.121819 11.113506 9.975372
1 6.845428 10.066922 11.007069
1 6.747699 10.853514 0.884964
1 7.807723 10.534117 2.347439
2 7.671425 11.152925 3.296719
2 6.744411 9.627454 4.938790
1 7.091074 10.823307 5.174849
2 7.342275 0.839610 5.968437
1 7.621767 -0.207632 6.301740
1 6.978763 1.163119 8.649985
2 6.366843 0.656714 9.363764
1 7.220164 0.990834 9.941400
2 8.095621 0.780702 0.773870
1 8.429387 0.358304 2.418647
1 8.024012 1.338518 2.733633
1 6.807257 0.069993 4.120563
2 6.669081 1.155403 5.169538
2 7.776668 2.073789 5.887691
2 6.342339 1.261109 7.725165
2 7.474595 2.233391 8.170220
1 7.938066 2.244334 9.524689
1 6.971443 2.201367 10.332519
1 7.851275 2.050526 0.500153
2 7.397281 1.911813 1.533934
1 8.511033 2.204420 2.999562
1 8.005130 0.819620 3.861694
1 7.096625 2.664706 4.586393
2 7.610461 3.098359 5.331693
1 7.199493 1.812075 6.852111
1 7.709916 3.406353 7.674504
1 6.581117 3.040193 8.671325
2 8.098457 2.249368 10.559857
1 6.634975 2.678889 0.050582
1 7.087529 3.380098 1.080548
2 7.958017 3.386286 2.526028
1 7.493141 2.177206 2.838124
2 8.160001 3.597358 4.638284
1 8.432011 3.054242 6.758102
1 7.640129 4.261261 7.094933
1 8.348489 4.226985 8.388424
2 7.152782 4.111006 8.529256
2 7.244709 3.091829 9.717245
1 7.185177 4.086679 -0.478262
1 7.627249 4.449855 2.852371
2 6.428188 2.920367 3.179605
2 6.998167 3.740160 3.671388
1 7.361369 4.457845 4.793879
2 7.654509 4.124248 5.889560
1 7.494879 5.423776 7.931317
1 7.265865 5.222649 8.925864
2 7.609399 4.887335 10.032188
1 8.009992 5.202315 11.629949
2 7.225844 4.431105 0.545708
1 7.218784 5.126055 1.433126
1 7.130119 4.825509 3.856129
2 6.927983 6.024445 4.586032
2 7.613759 5.799497 5.445176
1 8.219012 5.816487 6.304416
1 6.846635 6.191686 6.435341
1 7.494016 6.516364 7.122614
2 8.457596 5.739895 9.763104
2 8.135898 6.012371 10.862888
1 9.043399 6.944671 0.772975
2 8.159379 5.723389 1.341141
1 8.028520 5.179437 2.146564
2 9.060986 7.382589 4.675156
2 9.209703 7.094984 6.546801
2 8.275752 8.191601 6.541091
2 8.589784 7.148235 7.534469
2 7.688298 7.017529 8.201254
1 7.871459 6.112440 8.824607
2 8.852423 6.780973 10.551593
2 9.034624 7.958722 1.098154
2 7.303397 6.936472 2.466028
1 8.634107 8.179140 2.941457
1 8.838996 8.339517 4.863122
1 7.870603 7.620434 4.834575
1 8.980314 9.506869 6.905987
1 9.026420 8.745640 8.150235
2 8.322195 7.840363 8.740855
1 9.217426 7.379657 9.665971
2 8.528401 8.788527 10.684153
2 8.758253 8.745954 2.036471
2 8.109978 7.531067 1.761807
2 7.726219 8.693375 2.579470
1 7.340102 8.848839 3.720528
2 8.529307 9.100050 5.926960
2 9.853655 11.304850 6.091997
1 9.998593 10.010096 7.038034
2 7.604883 8.621651 8.544183
1 9.109320 9.492312 8.996972
1 8.148086 8.820607 9.479703
1 8.132824 8.835553 0.510828
2 8.055319 9.469604 1.683758
2 7.979468 9.678747 2.895186
2 9.064659 10.000091 3.193122
1 10.178399 9.283081 3.587817
2 9.092363 10.900110 7.060985
1 7.797803 10.550048 8.116486
1 9.348997 9.869984 7.803139
1 8.639716 10.818370 9.117483
1 8.105120 11.560660 9.718459
1 7.834395 9.776727 0.032182
2 8.363345 10.567635 1.383169
1 10.147990 9.924316 2.660974
2 7.282184 10.417848 4.150427
2 8.606922 11.366976 5.783502
1 8.576486 1.262703 5.987341
1 8.303521 0.355669 7.708985
2 8.363059 0.778867 8.856270
2 8.320761 1.293813 9.900257
2 7.509114 0.029202 11.134657
1 8.589077 1.085491 1.724896
1 9.352429 -0.293813 2.594873
1 9.326590 1.517205 2.486637
1 7.729127 0.157712 4.596244
2 8.797149 0.532479 4.601225
1 8.150511 0.888095 6.740299
2 8.774155 1.864963 6.723664
2 8.162817 1.389194 7.792221
2 8.615818 0.513145 10.650232
1 7.405805 1.501630 11.053768
1 8.839545 1.386513 -0.166774
1 8.384882 2.262239 1.773954
1 10.058767 0.771609 2.446578
1 8.244313 1.948053 3.944839
1 7.999632 1.181617 5.032721
1 8.816003 2.316962 5.757477
1 8.662084 2.596489 7.717140
1 8.006854 3.087175 8.768210
1 8.851195 3.606144 9.327192
2 7.662958 3.315268 11.390444
1 8.965185 3.078092 0.148634
1 8.942921 3.167545 2.387404
2 9.228730 1.666110 3.620818
1 7.663871 2.873155 3.509629
2 8.162504 2.340935 4.873492
2 8.380124 5.026810 5.284343
2 9.112114 4.034374 7.426608
1 9.183583 3.160739 8.484629
1 7.846817 3.995747 9.422044
1 8.236658 3.405302 10.571287
2 9.225278 4.835896 0.997618
2 7.985330 3.919761 1.000944
1 8.655898 3.426386 3.407437
1 8.902398 4.356058 4.294072
1 7.964653 4.071593 3.791694
2 8.416007 4.733765 6.484893
2 8.340101 5.976844 7.348461
2 9.289913 5.394470 8.194336
1 8.341491 5.059149 8.983007
2 8.447796 4.524133 10.739388
2 9.249388 5.959170 0.831880
1 9.573230 4.524831 2.053104
2 8.584478 4.261338 2.002090
2 8.073941 5.542745 3.153074
1 8.384788 5.833134 4.610698
1 8.745474 6.402644 5.471146
2 9.024433 6.832703 8.462063
1 9.423327 5.650303 9.231923
1 9.341020 8.009109 10.501283
2 9.157345 5.352097 11.083330
1 10.237171 5.401323 1.812375
1 8.319621 6.289095 2.305461
2 8.817994 6.566406 3.841860
2 9.101117 5.327136 3.862520
1 9.800001 6.534309 4.902498
2 9.826930 8.671432 5.760358
1 9.784546 6.466024 5.905737
1 10.212350 6.749223 8.046425
1 9.908019 6.772254 9.132156
2 9.389658 8.427947 9.397566
1 10.135256 7.261089 0.667689
1 9.747873 6.674094 1.623289
1 8.964686 7.015311 2.556512
1 10.411168 6.742436 3.236771
1 9.824545 7.559383 5.760846
1 9.827188 8.899926 7.239029
1 9.207926 7.949560 7.164254
2 9.962467 8.024419 7.882220
1 9.564439 7.687337 8.757787
1 9.312122 9.397566 10.140013
2 9.993631 8.026201 1.623318
1 10.016052 9.117803 1.520715
2 10.823950 8.366799 2.584307
2 9.671675 7.676545 2.805277
2 8.993574 9.457378 5.004259
2 9.286879 10.387200 6.130549
1 9.944989 9.819384 5.418625
1 10.277899 9.536558 8.098749
2 10.258035 9.588972 9.443457
1 8.456266 9.831962 10.073415
1 9.158853 9.039370 1.078540
2 9.020456 9.991991 2.174842
1 9.256973 8.743336 3.512283
1 10.832329 10.058776 3.688299
1 10.624614 10.134141 4.716247
2 10.988464 10.429764 5.682454
2 9.779951 11.734076 7.468734
1 9.533615 10.486775 9.735834
1 9.369430 11.570593 9.742662
1 8.237226 10.747671 11.688783
2 9.123235 10.163111 0.770100
2 9.900760 10.485001 1.550161
1 10.359136 10.979226 2.870256
2 8.702905 10.885008 3.827710
1 9.527956 10.132381 4.399568
1 9.479889 0.897754 5.518547
1 9.217819 0.697630 6.643655
2 9.249730 0.038562 8.404485
2 9.429965 1.305445 9.542347
1 10.772187 0.268735 10.366075
2 9.204526 0.124539 0.424858
2 9.196519 0.208148 1.610380
1 9.174953 0.483065 3.250883
1 10.267403 1.174404 4.724786
2 9.288552 -0.358095 5.070239
2 8.729108 3.416980 5.645394
1 9.739452 1.874922 5.962337
2 9.261071 1.234066 8.105912
1 9.075842 2.143548 10.294623
2 9.869363 0.886704 10.761767
1 10.714476 2.050819 0.480698
2 9.367403 2.359403 0.934211
2 10.212811 1.046772 3.494536
1 10.198615 2.264145 3.833318
1 9.223836 1.698920 5.083962
2 9.469615 2.948966 6.738518
1 10.366337 1.671395 8.025862
2 8.711592 2.072761 8.750495
1 9.533044 2.440635 9.362147
2 10.460085 2.743431 10.944589
2 10.000496 3.289421 0.586145
2 9.555908 3.576084 1.585427
2 9.554294 2.560098 3.091186
1 9.865155 3.468921 3.760214
2 9.181573 2.719371 4.188832
1 9.375769 4.559388 6.242519
2 10.180581 4.651457 8.007524
2 9.995545 2.649504 7.680242
2 9.188087 4.416460 9.974217
2 9.328839 3.267456 10.252583
2 9.401534 4.182658 -0.217089
2 8.275709 2.908893 1.046256
2 9.890065 3.751903 2.660455
2 8.784622 4.443319 3.105700
1 9.403657 3.576107 4.950652
1 9.194274 5.074746 7.117785
1 10.306559 5.743622 7.676352
1 9.419930 4.551825 8.770662
2 10.107307 5.350482 10.605965
1 10.236238 5.213650 11.711516
2 9.111366 5.393816 1.893476
1 11.506402 3.793855 1.833392
2 9.316216 5.920259 2.825390
2 9.894972 5.228738 4.881688
1 9.105956 5.462573 5.858452
2 9.433209 6.419397 7.495919
2 10.184011 7.840233 6.774795
2 10.438865 5.926371 8.809488
2 9.705563 6.237944 10.021225
2 9.691061 6.422298 11.154686
2 10.483000 6.271347 0.979958
1 10.649028 6.084840 2.482173
1 11.330069 5.920335 3.205348
1 10.115422 5.866401 3.662203
1 10.416109 5.085438 5.964057
2 10.681925 7.139328 5.408212
1 11.317482 7.184361 7.788419
2 10.991049 7.801266 8.748789
2 10.614805 6.708092 10.491311
2 10.269881 7.783498 11.090671
2 10.861682 7.398083 1.412124
2 11.861810 8.108648 2.011843
1 11.169988 7.060586 2.446109
1 11.026820 7.584640 3.345521
1 11.048272 7.585195 4.375074
2 10.301739 8.985991 4.752742
1 11.165280 8.024789 7.107638
2 11.181150 8.778599 8.112841
2 10.325772 7.887169 9.999380
1 10.332277 9.007420 10.735783
2 11.053565 8.696108 1.525512
2 12.253136 9.287096 2.045864
2 12.644528 8.415165 2.822094
2 11.326967 8.453937 3.902017
1 10.143276 7.896024 4.735407
1 11.500873 8.719221 6.377334
2 10.893729 9.511013 6.916935
1 10.249445 8.487419 8.875306
1 9.777714 10.326665 8.787993
2 9.699191 10.095751 10.813758
2 9.951747 9.557512 0.552191
1 10.831144 9.730664 1.747541
2 11.596955 9.044167 3.019403
1 11.273870 9.377170 4.295837
1 11.270556 9.382655 5.424891
2 10.975644 10.494937 6.859456
2 10.339495 10.725001 7.748283
2 10.371564 11.182643 9.387500
2 8.816981 10.750999 10.757019
1 10.694730 10.472405 10.402302
2 10.151903 10.886502 0.265921
1 11.065921 12.170746 2.146596
2 11.202772 10.151407 2.649881
2 9.789110 11.461117 4.210158
2 10.373034 11.236129 5.023909
2 10.930343 0.219419 6.305611
1 10.819585 0.681043 7.407765
2 10.046743 0.864597 8.694617
1 10.444625 0.946371 9.739146
1 11.352686 -0.387960 11.119023
1 11.041773 0.486014 0.086391
2 10.487365 0.772492 0.937663
1 10.664430 1.771862 2.915430
1 11.023512 0.356925 4.395379
2 10.638900 1.018605 5.696565
2 10.628900 2.399094 6.423171
2 10.175965 1.495684 6.955675
1 10.395424 1.881866 9.027790
1 11.950927 1.781468 9.829179
2 11.079383 1.424415 10.703626
2 11.738328 1.821455 0.266594
2 10.082817 2.170540 1.926732
2 11.445469 2.609115 2.428122
2 11.085876 1.675422 4.156311
1 10.476664 2.079486 5.235534
1 10.147847 3.266781 5.847980
1 10.609166 3.616188 7.467702
2 10.593997 3.034337 8.508301
1 10.161078 1.892162 10.144308
2 11.525351 3.086870 10.429968
2 11.082526 3.360472 0.664390
2 10.677594 3.250740 1.699924
1 10.730969 2.828989 3.282271
1 11.570722 2.583631 4.493258
2 10.287860 3.069400 4.546438
1 10.100339 4.662998 6.835365
2 11.063963 4.909000 7.335659
2 11.141479 4.197102 8.434092
2 10.224663 3.957019 9.050039
2 10.200820 3.945749 10.338810
1 10.709637 4.092054 0.125740
2 11.104243 3.712785 2.870330
2 10.121516 4.978242 3.003605
1 10.078974 4.489380 4.151850
2 10.342340 4.120843 5.244071
2 10.711032 6.051653 5.511205
1 9.981726 5.771332 6.700141
1 11.251581 5.315261 8.311291
2 10.296219 4.909034 9.514497
1 10.901484 6.081053 11.290547
2 10.400401 4.176533 1.170888
2 11.222155 5.024390 1.175733
2 10.982441 4.679196 2.250014
1 11.956285 4.796603 4.411080
2 10.991862 5.054481 4.942375
2 -0.545514 6.859172 6.467098
2 -0.147042 5.794788 6.768353
1 0.906191 7.135931 8.287091
1 -0.266308 6.963893 9.425732
2 0.960376 5.919679 9.782243
1 0.918188 6.962378 -0.323207
1 0.519591 6.411648 0.529702
2 0.626996 5.333670 2.427252
1 -0.411019 6.415218 4.229251
2 0.353757 6.642375 4.941631
2 0.517579 6.641966 7.081253
2 2.277604 7.282826 7.953478
2 0.720615 8.240614 8.919365
2 0.012768 7.767655 10.396495
2 -0.053848 7.304318 11.477512
1 1.445940 8.057155 0.045485
2 0.636540 7.124129 1.504565
2 0.951121 6.548245 2.577694
2 0.910810 7.655159 4.012460
1 -0.491959 8.145230 5.762215
2 1.145398 8.542208 6.861350
1 0.545843 7.994582 7.810836
1 1.833035 8.979422 9.365868
1 -0.080634 8.754385 9.552312
1 0.634965 8.403407 10.991022
2 -0.242239 8.327966 0.423536
2 0.833066 8.390671 0.928350
1 2.325040 8.793497 1.724401
1 0.522872 8.720943 4.833592
2 1.069194 9.854735 5.138615
2 0.575343 9.963109 6.384167
2 1.087308 9.285024 8.498124
1 0.104062 9.858470 7.935466
2 0.690389 10.281931 10.452122
1 0.102754 9.544594 11.085209
2 -1.343343 8.538590 0.593351
1 0.496910 9.846873 1.163600
1 1.328857 10.391687 2.656799
2 1.037761 9.165625 3.771913
2 1.409594 10.671163 4.511532
2 1.093741 10.777680 5.806800
1 0.848602 10.623940 7.298881
2 0.709814 11.026674 8.720194
2 0.191081 11.286617 9.621479
2 1.038637 11.359499 11.204472
1 0.872701 10.568974 0.586664
2 0.053551 11.047360 1.659228
2 -0.145605 11.034610 3.548608
1 0.575850 10.201617 3.979856
1 0.372421 10.749481 4.831326
1 0.652347 0.539791 7.567323
2 -0.406731 0.039137 8.398762
1 -0.041127 1.068311 8.279405
2 1.414140 1.752847 8.745408
2 1.512688 1.122316 11.190227
1 0.489403 1.063536 0.991278
2 0.814979 1.006563 1.973398
2 0.005804 0.993615 3.316040
1 0.844698 0.202719 3.620404
2 0.167112 0.385443 5.367884
1 0.698347 0.633912 6.477661
1 0.184875 2.099603 5.660304
2 -0.016483 1.382471 6.839696
1 1.302618 2.676597 9.551250
1 -0.287306 2.581988 9.566925
1 1.301975 1.650348 0.854356
2 -0.218126 1.767103 1.407268
2 2.076169 1.224887 2.262614
2 0.837232 1.703079 2.741849
2 -0.004706 3.238826 5.557687
2 0.460654 2.802612 6.671803
1 -0.103424 2.307664 7.681780
2 0.280860 1.961714 8.723738
1 0.338221 3.260620 8.535233
1 1.186837 3.542450 10.587778
1 1.312135 3.412191 0.403639
2 1.925059 2.569778 0.886462
1 1.488994 2.094355 1.703906
1 1.995418 3.369800 3.225309
1 1.185871 3.776514 3.797236
1 0.085760 4.706493 6.269964
1 0.879248 4.447211 8.263072
1 0.480107 3.512243 7.528243
1 1.162877 3.883747 9.369804
1 0.171689 5.236350 11.281447
1 0.695135 4.183562 0.066442
1 0.640117 2.507274 1.385342
1 1.001854 2.954843 2.951452
2 -0.110368 4.093238 3.876476
1 0.619447 4.513068 5.408040
1 0.822292 3.921878 6.610546
2 0.965364 4.893996 7.353325
2 1.192793 5.392878 8.698994
2 0.212483 5.225565 9.279150
2 -0.238021 4.204167 9.736793
2 0.142424 6.166140 1.778666
2 1.288788 4.093844 1.186255
1 0.032681 4.909616 3.204545
1 1.704762 5.350083 4.389409
2 0.729200 5.700246 5.322045
1 1.567653 7.711742 6.235058
1 1.077893 6.110425 6.213452
2 0.956577 5.968891 7.831018
2 1.486524 6.764932 9.137984
1 1.735877 6.423264 10.476939
2 2.109714 5.417876 -0.290638
2 1.262593 6.302233 1.206946
1 2.041570 6.572077 1.993505
1 0.933584 5.825230 3.991143
2 1.433330 6.730746 4.683856
1 2.459043 8.316964 5.860892
1 0.269221 7.709012 6.280293
2 2.404255 6.213226 8.988576
2 1.744659 7.898921 9.240560
2 0.782701 7.243478 9.843785
1 2.133272 7.261612 0.140777
1 3.089675 6.662557 2.915374
1 0.654438 7.624192 3.046972
2 2.339939 7.377098 4.568804
1 0.664940 7.630836 5.068045
2 3.286283 9.012046 7.822767
2 0.993046 9.487133 7.389286
1 1.473833 8.143852 8.001665
1 0.960190 8.610604 9.922268
2 1.347238 9.312111 11.269091
1 2.094485 8.243612 0.654244
1 1.535988 7.463708 2.407168
2 1.762134 8.329426 4.085044
1 4.243615 9.017049 4.144047
2 1.380420 8.512113 5.349387
2 1.787797 9.417961 6.351927
1 1.820001 10.343439 6.806104
1 0.141788 9.929779 9.437502
1 2.834903 9.767805 9.218877
1 1.216105 9.747188 9.548139
2 2.066108 9.276346 0.828322
2 2.393622 10.434180 1.525512
1 1.460081 10.028135 1.196456
1 2.729142 8.219075 2.671223
1 1.950056 9.406239 4.204164
1 1.550587 11.534896 6.960613
1 1.724959 10.757615 7.908536
2 1.344458 11.803765 8.322459
1 1.461791 11.271945 9.376405
2 1.901915 9.842467 10.363717
2 2.023303 10.187224 0.243241
2 1.341802 11.043086 1.434745
1 1.642092 11.380029 2.578193
1 1.887340 10.791947 3.427475
1 2.146053 10.207592 5.458570
1 1.471459 1.185352 6.184731
1 1.984891 1.136628 7.575575
1 0.659392 0.926516 9.063024
2 0.819457 0.729036 10.261721
2 1.991341 0.226654 10.408756
1 2.675404 1.478252 -0.953983
1 1.653152 0.608139 0.897156
2 0.463335 0.112800 2.624843
1 1.506407 0.981087 3.160409
1 1.543724 0.378653 5.396600
2 1.158713 2.275634 6.031326
2 1.027859 1.655517 7.630566
1 2.378992 1.295420 8.530410
2 1.723553 1.862268 10.270550
2 2.235127 1.948672 11.280559
1 2.319305 1.384001 1.103628
1 2.287501 0.287705 1.877962
2 1.893098 2.407195 2.824847
1 0.804216 1.706590 4.582674
2 1.791263 1.573927 5.244673
2 2.139694 1.983028 6.495360
2 1.535558 2.792467 7.106406
2 2.105700 2.129929 7.826152
2 2.280110 2.999282 9.886615
2 1.348472 2.487783 11.083740
2 3.188634 3.562654 0.908300
1 2.947972 2.011444 2.338137
2 2.501490 1.525635 3.288827
1 2.784418 2.705427 4.080283
1 0.970135 3.628184 4.926417
1 1.208051 3.295544 5.976144
1 2.060097 4.456620 6.394452
1 1.306098 2.766700 8.245277
2 2.176320 3.003585 8.818214
2 -0.263905 5.634135 10.186818
1 1.000106 4.676239 -0.808639
1 1.825349 4.273904 0.147332
1 1.009962 3.189331 2.040546
2 1.187705 4.779312 3.482958
2 2.123660 3.800855 4.609237
2 1.106445 5.017216 6.322056
2 1.653245 3.776288 7.608718
2 1.896406 4.881240 7.971256
1 1.818672 5.018243 9.622392
2 0.976381 5.881176 10.974452
2 0.984656 5.267478 0.616500
2 2.069389 5.233014 1.229304
1 2.048939 5.633245 2.564026
1 2.240776 5.010482 3.535842
1 1.636665 4.497929 5.480977
2 2.033967 5.659501 6.521162
2 1.985778 6.096618 7.654333
1 3.035610 5.987765 7.565514
1 3.084748 5.359480 8.845702
1 3.074987 6.602190 10.665035
1 2.107325 6.337905 0.382158
1 1.564854 7.286046 1.046358
1 1.814530 6.359738 3.537431
1 2.097821 5.502947 5.445107
1 2.918604 5.969583 4.892939
2 3.089370 7.274510 7.362394
2 2.223575 6.818025 6.685270
2 2.699707 8.171433 8.297895
2 2.738560 7.288316 9.083121
2 2.967197 8.124713 10.984837
2 3.283290 7.562513 0.556136
2 2.594485 7.813603 1.464988
1 2.811155 5.900554 1.801698
1 2.342847 8.617899 4.965393
2 1.684018 6.776338 5.737031
2 4.780134 9.424964 6.227954
1 1.903942 7.826312 7.149791
1 2.324133 9.116881 8.474169
1 3.156224 9.946346 10.277583
2 1.859430 8.220353 10.343143
2 3.237078 9.148615 0.946705
1 3.455411 8.683435 2.115229
1 2.195663 7.414026 3.381804
1 3.685803 8.512559 3.179785
2 3.110262 7.701913 6.339403
1 3.165840 9.810242 4.992060
2 1.913652 8.907963 7.420142
2 4.051772 8.434541 6.948400
1 3.670539 9.882122 8.528500
1 2.546130 9.174768 11.080151
1 2.815937 11.350993 0.952700
1 3.618510 9.631251 2.054363
2 2.731991 9.860911 2.555682
1 3.141685 8.858287 4.012366
2 2.667427 10.790628 4.498437
2 3.080286 10.329273 6.437137
2 2.504920 11.099650 7.203352
1 1.495390 10.289546 8.787644
1 2.568391 10.828449 9.853022
2 2.702730 10.985676 11.113462
1 3.883865 11.359741 1.632045
1 3.120708 10.956476 2.303211
2 1.846532 9.406861 2.916663
1 2.620348 10.041786 3.659577
1 1.900447 11.851085 4.419757
2 2.206167 0.011629 6.175011
2 2.589275 0.970713 6.552051
1 2.931466 0.764197 7.901254
2 2.202263 0.837594 9.523030
2 3.258949 0.545359 10.109983
2 2.608285 0.839766 0.011330
1 3.165241 0.698744 1.877250
1 2.365167 0.414354 3.235521
1 1.624280 1.687137 4.020719
2 2.900754 0.655404 5.315488
2 3.425282 1.927955 6.255305
2 3.878242 3.405607 5.925629
1 2.921603 1.783228 7.251576
2 3.497913 2.662158 9.308173
1 3.161983 2.460093 11.587681
2 3.539978 1.577752 -0.215180
1 3.404406 1.435573 0.871242
1 4.184969 1.176788 1.901222
1 1.776140 2.850836 4.393134
2 2.729021 1.741772 4.589228
2 4.538825 3.442440 7.077292
2 2.529639 3.139383 6.675303
2 3.068969 2.992622 8.108361
2 2.535246 2.087743 9.245804
2 3.296142 2.537969 10.339729
1 4.018411 3.133424 0.415928
1 2.972570 2.636423 1.386876
2 2.130018 3.184263 1.907163
1 3.623897 2.261159 3.902972
2 2.072940 2.554662 5.523781
2 3.721830 4.316594 5.244760
1 3.397019 3.688171 6.994987
1 2.169307 4.100342 8.981531
2 2.784712 4.159335 8.121357
2 2.315915 3.275039 11.130205
1 2.830212 4.444956 0.022992
1 3.847732 4.716195 1.114314
1 2.830506 4.426812 1.552457
1 2.861497 2.942883 3.031981
2 2.735915 3.647909 5.652099
2 3.281795 5.295449 5.739052
1 3.066004 4.398422 6.335868
2 2.810975 4.870823 7.307111
2 2.312295 4.217065 10.335554
1 2.565355 5.775923 10.007208
1 3.426253 5.494706 -0.128814
1 2.784075 6.721569 1.064638
1 1.288281 4.489767 2.191094
2 3.722295 4.822569 3.863825
2 2.567816 4.818129 4.608463
1 3.815319 6.415693 5.902249
1 2.845668 6.641628 5.897283
1 3.555371 6.700963 8.425447
1 4.910153 5.308587 9.831089
2 3.498764 6.344830 9.577302
1 4.049511 5.957437 1.262605
2 3.639338 7.468938 2.554829
1 4.210051 6.338969 2.776361
1 2.784413 5.963391 3.720588
2 4.453158 5.630572 5.592222
2 3.543604 7.180448 4.495363
1 4.656701 8.887399 7.546808
1 3.751396 7.856035 8.048501
1 2.711288 7.379677 10.125374
2 4.203720 7.364898 11.272938
1 3.546593 6.596689 0.451829
2 4.200233 7.587061 1.533598
1 3.250844 7.959126 4.013210
2 4.128238 6.850000 3.769685
1 2.956759 7.608560 5.361926
2 4.250083 7.261476 5.466482
1 2.844922 8.290557 7.251329
2 3.735974 8.782307 8.757839
2 3.049429 8.710016 9.688738
2 3.829240 8.097112 9.897228
1 3.929615 8.562285 0.399155
2 3.591514 6.601354 1.893283
2 4.475854 8.470678 2.525399
1 4.360355 7.991904 3.609356
1 5.149639 8.663548 4.321110
1 3.539351 9.379169 5.894303
1 3.832816 9.756057 7.104335
1 3.978656 9.529259 9.627971
2 4.826186 8.970211 9.749066
1 3.649425 8.911675 10.594607
1 3.261751 10.066127 0.161803
1 4.336669 8.597258 1.340254
1 3.781477 9.688784 3.083262
1 3.520365 10.120773 4.154739
2 4.355619 9.530683 5.027957
2 4.163592 10.291396 5.714781
2 3.777682 10.604327 7.775387
2 2.644257 10.149215 7.945409
2 5.080068 10.039315 9.192799
2 3.860818 10.620213 9.538328
1 4.339360 9.844706 0.351392
2 3.902252 10.349487 1.406746
1 5.032606 11.687176 1.811327
2 3.653368 10.789723 3.335851
1 3.101560 10.887658 5.542527
2 4.648504 0.813543 6.577054
1 3.853271 0.231800 7.264991
2 2.988943 0.030978 8.730139
1 3.434756 1.055320 9.102911
2 4.219461 1.566114 10.158986
1 3.947014 -0.297016 0.424421
2 6.084955 0.893754 2.121031
2 3.500793 0.939540 2.982325
1 3.156402 0.384988 3.905975
2 3.920579 0.269138 5.846275
1 3.627388 2.625917 7.104492
2 4.901873 2.268194 7.064148
2 3.279780 1.892075 8.436740
2 4.410957 1.148651 8.589618
2 4.389082 2.430837 10.840830
2 4.243019 0.638644 -0.353124
1 4.353275 0.758714 0.737184
2 4.418143 1.363395 3.455514
2 3.631340 1.263734 4.371918
2 4.127171 1.453805 5.587233
1 4.397976 2.482429 6.132208
1 3.765278 3.772412 8.007967
2 4.112246 2.367859 7.993231
2 4.516583 2.146622 9.271181
1 4.079934 3.342052 10.138612
1 4.832763 2.111344 0.621052
2 4.025327 2.093223 1.393457
1 3.999990 2.586493 2.949588
1 4.458868 3.525579 2.734943
1 3.465586 2.473671 5.142642
2 4.096434 4.469930 6.608236
1 4.008049 4.915259 8.051704
2 3.341383 3.847159 9.386577
2 4.769978 3.984458 9.660765
2 3.449714 3.448994 10.929093
1 4.020458 3.800072 1.516168
1 4.238261 4.572015 2.558577
1 3.304986 3.183945 2.146936
2 2.710170 4.075687 3.770325
2 3.577683 3.496589 4.493870
2 3.607555 5.702039 6.669972
1 4.766276 5.981992 6.723200
2 3.933938 4.811856 9.163832
1 3.559417 5.266359 10.234694
1 4.506162 5.530806 10.825609
1 3.153476 5.594322 0.889015
1 3.091762 5.073004 2.889383
2 2.376124 4.149330 2.450423
2 3.826197 6.022043 4.401619
1 4.933968 4.653893 5.346636
2 5.033768 6.992065 6.056338
2 3.983078 6.766044 6.790929
2 4.853363 6.182476 9.244136
1 5.397616 6.021584 10.369291
2 4.942782 6.605389 11.355327
2 5.683037 5.610923 0.167723
1 5.702791 5.791464 2.991966
2 4.565267 5.472098 3.392376
1 4.819217 6.407182 4.943607
1 5.838523 6.186735 5.122438
1 5.016848 8.195976 5.276152
2 5.094347 6.931737 8.409938
2 4.249745 7.254514 9.371846
2 5.111494 8.067415 9.010449
2 4.333650 6.776317 10.295715
1 4.941366 6.397350 1.057361
2 5.355046 7.052575 1.889826
2 4.997794 7.024566 3.030519
1 5.578846 7.219460 4.814174
2 4.668864 7.509553 4.518516
2 5.153233 8.352994 6.435927
1 5.546926 8.965524 7.136030
1 4.755050 8.975733 8.726728
1 5.649064 8.211714 10.545737
1 4.649190 8.981591 10.816172
1 5.485735 7.401993 0.655895
1 5.241678 9.436200 1.975151
1 5.159384 9.983784 3.020565
1 6.085608 8.306034 4.492756
2 3.786982 8.374390 4.891777
2 5.617984 10.120319 6.451403
1 4.549387 9.806369 8.040188
1 6.256954 9.441940 9.117727
2 5.799787 9.192258 10.179860
2 3.794402 10.914759 10.652307
1 5.154742 9.232861 0.909926
2 5.964811 10.217968 2.096923
2 6.137032 10.147451 3.893062
1 5.237673 9.971574 4.385812
2 5.259534 10.173038 5.516863
1 4.342349 10.774984 6.729070
1 6.261965 11.307464 7.303689
2 4.503847 11.127268 8.635215
1 6.362788 10.557980 9.669266
2 5.123272 11.104582 9.761199
2 4.984228 11.003380 -0.235365
2 5.126473 10.671270 0.902504
2 4.350542 10.657948 2.348334
2 4.648242 10.739573 3.938510
2 3.906218 10.983717 4.790394
2 5.574447 1.459703 5.742563
2 4.985723 -0.459155 7.831613
1 5.457852 0.501153 7.741813
1 4.211683 0.590601 9.790212
1 5.165253 0.873398 10.138103
1 5.153467 1.253491 -0.172556
1 7.547367 0.205845 1.504589
1 4.755424 0.264991 3.095726
1 4.399768 0.591062 4.077871
2 5.617876 0.035240 3.711265
1 4.686856 0.593403 5.255320
1 5.712043 1.292858 6.934345
2 5.549037 1.539482 9.145663
1 5.264923 2.221626 10.154720
1 5.542263 2.239676 11.291532
1 5.229809 1.219601 1.134357
1 4.993614 1.662296 2.035295
1 4.833615 1.958877 4.508317
1 4.540767 2.990891 3.782848
2 5.820538 3.446227 5.641318
2 4.851627 2.918950 5.228051
1 6.023588 2.233888 7.226175
1 5.188140 1.650700 7.979691
2 4.383685 3.239915 8.776694
1 5.430998 3.132884 10.898950
2 5.007965 3.163985 0.839496
2 4.577612 2.902535 1.848059
2 3.632371 3.525055 3.302628
1 5.498841 2.304017 3.714776
1 5.531227 3.875387 4.619172
1 4.980620 3.861065 6.209533
2 5.566751 4.079505 7.028735
1 5.151204 5.235364 8.831068
2 5.599726 3.407472 9.538921
1 3.855704 4.431990 10.561508
2 4.207360 4.158544 0.343804
1 4.813473 4.345292 1.460626
1 5.118853 4.214054 2.390046
2 5.414652 3.551780 3.295731
1 5.949734 4.631182 6.032960
2 5.908243 5.688355 6.168470
2 4.896582 5.026220 6.326683
2 6.752599 4.651692 7.466707
1 4.170465 6.005990 8.287466
2 5.026266 4.518235 10.927295
2 4.690449 5.141894 0.663019
1 5.744571 6.031574 1.679471
2 4.846846 5.335057 1.953524
1 4.663102 4.248594 3.704512
2 5.008824 5.337431 4.525228
