1000
Lattice="10.772173450159416 0.0 0.0 0.0 10.772173450159416 0.0 0.0 0.0 10.772173450159416" Properties=:species:S:1:pos:R:3 Time=1000
2 6.395687 5.981195 6.140654
2 5.886116 5.966725 7.096833
1 6.407600 5.575707 8.033914
1 5.276920 6.092975 9.252897
2 6.158624 6.236150 10.268541
1 6.319128 6.157315 0.539739
2 4.789582 5.264389 1.073090
2 5.632998 6.312756 2.993894
2 6.036268 5.707989 3.848228
2 5.664403 5.312396 4.980520
2 6.181408 7.308693 6.068871
1 5.238678 6.760205 6.589534
1 5.777412 6.272928 8.343673
1 5.860327 7.262203 8.315366
2 5.343652 6.364947 11.030995
2 6.357886 7.933875 0.160302
1 5.921624 6.858060 1.216711
1 5.400223 7.342719 3.071276
1 6.156310 6.837707 4.371824
1 5.472351 7.612669 4.933237
2 5.434859 8.165248 5.996574
2 5.539886 7.732037 6.994837
1 6.674155 7.914461 7.537849
1 5.751277 8.427031 8.792612
1 6.227862 8.173994 9.814679
1 5.929387 8.659205 0.847115
2 6.678063 7.836893 1.581560
2 6.623664 8.379292 2.747039
2 5.781837 7.785866 3.965128
2 6.022762 8.673112 4.792493
2 6.008390 9.318293 5.788721
2 6.369750 8.454619 6.673535
2 5.244985 8.885102 7.119618
1 6.677342 9.427272 8.610149
1 6.516944 9.210925 9.646889
1 4.949956 9.164789 0.486805
1 5.805120 8.576584 1.917243
1 5.815582 9.446708 2.656475
1 6.181133 8.941761 3.432799
1 5.999860 9.986416 3.877272
2 5.883085 10.647035 6.544469
2 6.358259 9.482695 7.488896
1 6.066720 11.222978 9.030928
1 6.453838 10.249935 10.628208
1 5.343034 10.065477 10.720635
2 5.944245 10.348098 0.976128
1 5.539319 9.562200 1.378087
2 5.619254 10.411640 2.019416
2 5.529546 10.512647 3.148447
2 5.443934 10.544135 5.312043
1 6.063009 0.881166 6.192394
1 6.463039 0.711123 7.138721
1 5.984735 0.949507 8.094914
1 5.817948 1.219095 9.704695
2 5.849013 0.093566 10.165985
2 6.425899 0.527566 0.383856
1 6.300417 0.317299 2.440698
2 7.334550 0.858948 3.031842
1 5.579612 0.101314 4.303963
2 5.573414 0.999136 4.856086
1 6.173520 1.689286 5.355199
1 5.937003 2.447977 7.793044
1 5.553864 1.972174 8.921605
1 5.828108 2.373912 9.821695
1 5.773785 1.166944 10.637939
1 6.773725 1.698524 0.511298
2 5.998120 1.679948 1.147656
1 5.517011 1.007469 2.411038
1 6.398663 0.418542 3.466068
2 5.007340 1.706598 4.219111
2 5.874777 3.090678 6.723774
2 5.630420 3.680473 7.616797
2 6.038410 2.949019 8.796600
2 5.352361 3.449209 9.479045
2 5.839650 2.199007 10.906499
1 5.576481 2.728136 1.097335
2 6.528961 3.565147 1.623536
2 5.407446 2.984464 2.881068
2 6.470630 2.027973 4.254156
1 5.526113 2.381173 5.030197
1 5.398856 3.334348 5.874870
1 5.593166 4.687038 7.344115
2 5.109667 4.216348 8.370539
1 6.159181 4.052305 9.016873
1 6.422970 3.083136 10.354138
2 6.001724 3.863943 0.540636
2 5.395563 3.813624 1.710529
1 6.219098 3.610691 2.636949
2 4.839690 3.648940 3.524722
2 6.282759 4.442560 4.693114
1 5.379952 4.329421 5.296888
1 6.376313 4.377959 5.998531
1 6.650716 4.550131 8.228470
2 6.051011 5.058717 8.944728
2 5.940707 4.237337 10.063962
1 5.279507 5.337071 -0.747750
1 6.106833 4.745831 1.905292
1 5.658768 5.249547 2.868548
2 6.521362 4.842733 3.434149
2 5.289147 4.518159 3.920651
1 7.918758 5.737577 5.252253
1 6.103566 6.900813 7.345998
2 6.719286 6.199839 8.872850
2 7.277828 6.311672 9.865820
2 7.183919 5.675631 10.916572
2 8.048104 6.237497 1.150940
1 5.703656 5.529720 1.198875
2 6.428560 5.797366 2.300185
1 7.739562 5.028313 3.396690
1 7.270532 5.885807 3.700983
1 7.274517 6.473765 5.811740
2 7.151591 7.444650 6.714285
1 6.518504 7.017018 9.555598
2 7.934563 5.963231 7.895723
1 7.064051 7.196794 10.443841
2 6.921212 7.140608 0.701874
1 7.105459 6.756531 1.659670
1 6.214584 7.138773 2.322476
1 6.615484 6.648418 3.327762
2 5.547853 6.538986 5.202382
1 6.797481 7.143459 5.059391
2 7.414596 8.441080 6.895718
2 7.089076 7.145721 8.167005
1 6.546078 7.896754 8.721801
2 7.259066 8.248357 9.956304
1 7.640693 8.098239 0.227885
1 7.664393 9.008118 1.748933
1 7.642815 8.321202 2.525479
1 6.788881 7.704953 3.890439
2 7.150035 8.327887 4.699535
2 6.769351 8.324726 5.673545
1 6.920933 9.347704 6.508242
2 7.123937 8.661881 8.058296
1 7.859872 8.917359 8.908669
2 6.836530 9.212579 10.754510
1 6.687288 9.248390 2.065892
2 7.416011 9.375226 2.808498
2 7.416544 8.672477 3.626904
1 8.119050 8.707395 4.554215
2 7.378327 9.386731 5.290055
2 6.584368 10.406536 5.609867
1 6.929478 10.279257 6.858033
2 6.181582 10.557678 7.732552
2 6.688157 10.203629 9.251856
2 7.109848 10.587300 11.589682
2 6.581367 9.559999 0.948765
1 8.465797 9.811877 2.117918
1 6.648863 10.123355 3.042322
1 6.708196 9.570435 4.471016
2 6.559524 10.544769 4.542028
1 7.115639 0.458396 6.361595
1 6.881645 1.433420 6.568506
1 6.917137 0.491003 8.204436
2 7.536942 0.002087 8.923017
2 6.713888 0.702350 9.897892
1 6.997276 0.713299 1.753616
1 6.677570 -0.427493 1.881856
1 7.482672 0.950961 4.235619
2 7.316310 -0.108770 3.834702
2 6.978443 0.584710 5.272085
1 7.194247 1.747544 4.991607
1 5.645714 1.620725 7.189056
2 6.765573 1.490920 7.583352
1 6.554835 1.626573 9.027167
2 7.067309 2.108447 10.387638
2 7.667147 2.505664 0.425455
1 6.519715 1.497138 2.026133
2 7.395533 1.848316 2.695827
1 6.537890 1.540706 3.331730
1 6.446614 0.896442 4.360301
2 6.867183 2.405242 5.810206
1 6.741570 2.402398 6.984004
1 6.798550 2.383022 8.241010
1 6.932460 2.508133 9.383072
1 7.436618 3.019001 10.334835
2 6.600202 2.851968 0.782900
2 7.549154 2.597440 1.779145
2 6.453046 2.426241 2.551203
2 6.778994 2.961103 3.449193
2 6.471066 2.908244 4.890552
2 6.961155 3.556874 5.723766
2 6.477407 4.148343 7.086842
2 6.688075 3.403575 7.900541
2 7.147531 3.587652 8.835852
1 6.928459 3.831397 9.870666
1 7.002499 4.440372 -0.049187
2 6.955052 4.328657 0.983803
2 7.295109 3.366180 2.573479
2 6.007245 3.728346 3.624274
1 7.331082 4.057904 4.681446
2 7.150045 4.764391 5.445537
1 7.064693 5.292781 7.291411
1 7.485352 5.133607 8.195674
2 7.066951 4.706814 9.243345
1 6.395158 5.235682 10.259481
1 6.313257 4.999672 0.561778
2 6.940181 5.532094 1.160989
2 7.067538 4.583258 2.438982
2 7.373072 5.147748 4.409330
2 6.688537 5.905529 5.007723
2 8.638182 6.481084 5.696455
1 7.392088 5.549838 6.365486
1 8.110801 5.378346 6.987017
1 8.210527 6.688139 8.639053
1 7.873965 5.510033 10.218753
2 9.038259 6.059264 -0.052335
1 8.145278 5.005745 1.470026
1 7.630377 5.741355 1.940673
2 8.281672 5.833676 4.146150
2 8.442282 6.767431 4.648783
2 7.732751 7.472717 5.738453
2 8.152459 6.447378 6.644309
2 7.241675 6.422367 7.199001
1 7.469059 7.333828 9.247404
1 8.076362 6.483276 10.705489
2 8.101827 7.191350 0.744307
2 7.996840 6.627136 2.345170
2 7.342948 7.391216 2.778707
2 8.046564 6.747285 3.599091
1 7.262202 6.592687 4.329786
1 8.168804 9.116239 6.464951
1 7.930964 7.661707 7.372325
1 9.033126 7.361551 8.157156
2 8.265102 7.828075 8.683319
2 8.131626 7.454858 10.272766
2 7.728354 8.054693 1.332619
1 8.354936 7.712953 2.071468
2 8.369923 8.022604 3.215265
1 7.844270 7.771433 4.096493
1 7.942426 8.583970 5.488142
1 7.968454 10.171961 6.089171
1 7.888280 9.445662 7.372610
1 8.160096 8.537887 7.786277
1 7.546431 9.417883 9.702634
2 7.886396 9.121282 11.236550
1 7.126412 8.737923 0.925631
1 7.612150 9.892834 1.567937
1 8.485330 8.852105 2.451026
2 8.513788 9.074512 3.454033
1 8.643835 9.235199 5.230249
2 8.128913 11.355280 6.377553
1 7.933067 10.420522 7.230294
2 7.236684 10.120674 8.061091
2 8.784969 9.214041 8.405955
1 7.831764 11.184123 9.911676
1 7.507276 10.238674 -0.228029
1 7.944197 10.849219 1.716186
1 8.304181 10.119837 3.324253
2 7.910072 9.844775 4.270770
1 7.714830 10.656945 5.019807
2 7.791517 1.431381 5.943905
2 7.508851 0.647721 7.343059
2 8.410580 1.165503 8.090424
2 8.184747 0.006740 8.126091
1 8.358613 -0.705489 9.119521
2 7.677056 0.639004 0.439709
2 7.500486 1.549552 1.292389
1 7.557142 -0.268479 2.571392
1 8.296219 0.317080 4.156359
1 8.462519 0.462838 5.416778
1 7.823103 2.300409 6.612558
2 8.381505 1.426598 6.983861
1 7.528590 1.722934 8.708574
2 8.039098 1.052686 9.192563
1 8.168649 1.698531 10.642247
2 8.990397 1.893385 0.559847
2 8.597218 1.893840 1.742504
1 8.078649 0.960835 2.288319
1 8.331704 1.234484 3.594348
1 8.735025 1.203555 4.754490
2 9.100157 3.085744 5.333841
1 7.776670 1.952051 7.757722
2 7.911729 2.917345 8.200684
2 7.880937 2.182677 9.690970
2 8.519034 3.054509 10.551399
2 8.401721 3.154319 1.003008
1 8.330857 3.198466 2.135860
2 7.857409 2.938597 3.363774
2 7.471418 1.864084 3.728349
1 7.830951 2.813854 5.661472
1 8.098903 3.729967 5.996606
2 8.163677 3.710583 7.152474
2 7.650151 4.143295 8.079221
2 8.641041 3.647461 8.657296
1 7.983902 3.250233 9.548242
2 8.076605 4.130753 -0.346928
2 7.444807 3.509932 0.535911
1 8.029530 4.043784 2.843000
1 7.175349 3.993853 3.457911
2 7.373320 2.773379 4.545423
1 8.911353 4.128490 6.603945
1 7.301078 4.388212 6.380653
2 8.558038 5.146631 8.476473
2 7.683199 5.766303 9.014939
2 8.098145 4.433466 9.272246
2 7.743208 4.950751 0.583866
2 7.742173 3.987321 1.729773
2 8.362168 4.897247 2.463635
2 8.521916 4.801150 4.503114
1 8.066887 4.761966 5.932935
2 9.060336 5.213165 6.134344
1 8.480122 6.858222 7.517944
2 9.345826 6.086076 9.249383
1 9.843588 7.244583 8.795760
1 8.531851 6.240122 9.784167
1 9.023392 5.319551 1.009665
2 9.051214 5.774087 2.221834
1 8.279534 5.826875 3.099500
1 8.828172 4.943172 3.465886
2 9.144001 5.823209 4.890805
1 9.610005 7.521316 5.903035
1 9.033026 7.147685 6.619270
2 9.227953 6.370558 8.170466
2 8.798365 7.256318 9.453443
1 9.389954 7.806352 10.151771
1 8.935936 7.129070 0.004196
1 8.781488 6.911700 1.670786
1 8.999620 6.977055 2.802795
1 10.296468 6.980511 3.069359
1 9.866045 7.294628 4.783837
2 9.872540 8.524167 6.698336
2 8.804178 8.120955 6.769903
1 9.633156 7.633696 7.234011
1 9.399088 8.195626 9.157637
1 8.361829 8.731868 9.918323
1 9.057326 7.684577 0.842915
2 9.404178 7.708842 1.882900
2 9.689693 7.905849 2.894909
2 8.924307 7.279842 3.796808
1 8.771663 7.690178 5.306860
1 9.019707 8.570277 5.910464
2 9.252595 9.483551 6.462342
1 9.426722 8.455782 7.915922
1 9.034051 9.310581 9.426513
2 9.021956 8.639155 10.702194
2 8.849020 8.532727 1.380919
2 8.700971 9.630826 1.017394
1 9.415672 9.240393 1.856646
2 9.168574 9.395077 4.379421
2 9.327647 8.412688 4.958373
2 9.733309 9.365285 5.493449
2 8.836989 10.541690 6.735622
1 8.935517 9.862040 7.519057
2 9.177188 10.349544 8.456219
2 8.445845 9.673159 10.266789
2 8.471484 10.669158 0.792679
1 9.456484 10.241296 1.686101
2 9.142560 11.202835 2.059364
1 9.209353 9.643780 2.804453
2 8.793135 10.240561 5.211379
2 9.424630 1.413906 5.588148
2 9.226508 0.753680 6.437120
1 8.941115 0.484036 7.557601
1 8.982373 0.464953 8.942195
1 9.525406 0.112606 10.388266
2 8.767416 0.827030 0.008140
2 8.491039 1.001009 1.250889
2 8.676449 0.245222 3.088572
1 9.451918 1.489132 3.989587
2 9.574075 -0.168878 5.854532
2 8.264275 2.103357 4.754506
2 8.899900 2.057241 6.231512
1 9.860783 0.961142 7.330663
1 9.105313 1.449122 9.650641
1 8.682307 0.065510 9.849856
1 9.978228 1.136438 -0.455663
2 9.606816 1.470774 1.799754
1 9.480999 2.368657 2.733029
1 9.259682 2.428782 3.664767
1 10.209741 1.367887 4.768468
2 9.333111 2.132444 4.752311
2 8.648841 2.487382 7.451602
2 8.489065 2.150680 8.585570
1 9.009331 2.462928 9.470778
1 9.303963 2.189525 10.414725
2 10.124187 2.482977 0.968281
1 9.269769 2.811181 1.554492
1 8.459695 2.263806 2.914563
2 9.946947 3.166511 4.072085
1 8.652936 2.969286 4.166999
1 10.143047 3.916765 5.149580
1 9.667493 4.090625 8.331918
1 9.280439 3.405371 7.466051
2 8.900671 3.743045 9.770426
1 8.691863 5.062354 10.600966
1 9.388000 3.218496 0.363457
2 8.826338 3.951376 1.735045
1 8.904446 3.331761 3.162609
2 8.254185 3.940996 3.985047
1 8.154796 3.384938 4.882749
2 8.741770 4.465694 7.693261
2 8.947576 5.787272 7.313764
2 9.597402 5.218379 8.128692
1 8.654968 5.236650 9.546640
2 10.141698 5.186533 11.267697
2 8.547389 4.181027 0.633237
1 9.778420 4.300561 1.559733
2 9.628511 4.101995 3.266203
2 9.551382 4.123111 4.364834
2 8.974538 4.239287 5.455000
2 9.616637 6.101798 6.466295
2 10.052851 5.953133 7.443210
2 10.317182 6.405931 8.459261
2 9.836665 5.450373 10.141720
2 10.146611 6.369776 11.051112
1 10.091987 5.717462 1.405421
2 10.011629 6.160527 2.570630
1 9.606567 4.692344 2.419236
1 9.134436 6.297701 3.564053
1 9.796209 6.460450 5.535604
2 10.358074 6.905040 6.371147
2 10.489141 6.965825 7.565412
2 10.779507 7.578233 8.439590
2 10.176367 6.408660 9.861210
1 9.897714 7.504147 11.059490
1 9.162060 6.560155 0.830835
1 10.036883 6.645252 1.581508
1 10.617031 6.018700 3.304881
2 11.444783 6.724622 2.971822
1 10.363157 6.729187 4.070780
1 10.136987 8.370735 5.516659
1 10.863561 8.116854 7.562614
2 10.371442 8.464100 8.532535
2 10.332345 7.662925 9.802000
1 10.368881 7.664173 12.164723
1 9.734874 8.347423 0.957322
2 11.480243 8.334056 1.827865
1 10.716830 7.280872 2.292052
2 9.613217 8.562125 3.777546
1 10.292200 7.744752 3.802771
2 10.614896 9.405910 6.558065
2 10.061861 9.473489 7.625473
1 9.796274 9.348022 8.727544
1 10.061979 8.816066 9.565444
2 10.190279 8.566397 10.664133
1 9.473855 9.195308 0.594665
1 10.397285 8.333591 2.157395
2 10.799991 8.973475 3.193976
2 10.070701 9.606235 3.559350
2 10.349172 8.914543 4.493686
1 10.467045 10.164938 5.853908
1 9.982557 10.514575 7.473547
1 10.316009 10.413639 8.399636
2 10.474929 9.724932 9.727895
1 9.528150 9.828799 10.540665
2 9.819605 10.201913 0.725768
2 10.178853 11.368000 2.027391
2 10.118336 10.059281 2.436381
1 9.451462 10.710139 3.906110
1 9.980343 10.127174 4.625945
1 10.420013 0.511962 5.484475
1 10.345514 0.572584 6.535850
1 9.858055 0.536198 8.331230
1 9.503796 -0.371345 9.507243
1 10.491224 0.235328 10.130045
2 10.383034 0.453046 0.543623
1 9.437727 0.508299 1.028544
2 9.057856 1.185907 2.835168
1 10.247795 0.726844 3.897100
1 9.427263 0.298231 4.813440
2 10.009091 3.035454 6.049316
1 10.052076 1.893210 6.456967
2 9.594965 1.544847 8.289949
1 10.292298 1.033348 9.379862
1 10.741689 1.924948 10.995045
1 9.923560 1.481584 0.848040
2 10.255404 2.353869 2.030438
1 10.220960 1.518135 2.948933
2 10.354522 2.315618 3.632176
2 10.770887 1.800049 5.607179
2 10.990972 3.443659 5.639900
1 8.982039 3.054867 6.472829
1 9.770930 2.534914 7.736002
2 10.037149 2.153145 9.089862
2 9.936139 3.024544 9.698991
2 11.210065 2.573484 0.984775
1 11.167647 3.064893 2.443258
2 10.145115 3.136521 2.905413
2 11.107051 3.047380 3.968573
2 10.202984 2.790721 4.993334
1 9.865121 4.258319 6.021050
2 10.108971 3.909792 7.150223
2 10.727316 3.551472 8.145203
2 9.566732 3.093120 8.607610
1 10.306023 4.492504 9.737883
1 10.294778 2.893220 -0.090351
1 9.998549 3.395427 1.497863
2 10.666530 3.959479 2.079350
1 10.680923 4.162781 3.494276
1 11.031124 3.809360 4.635837
2 9.804125 5.076149 5.339828
2 9.599860 4.832790 7.042957
1 10.475092 4.792697 7.703389
1 9.536723 4.895769 9.066876
2 11.040760 5.719827 10.496780
2 9.785130 3.842709 -0.361405
1 10.680561 4.338827 1.111028
2 10.647468 5.028802 2.513137
2 9.784431 5.350312 3.804700
2 10.485010 4.697171 4.486695
2 -0.127480 5.927641 5.862283
1 0.656535 6.356825 6.773605
1 0.381535 5.649817 8.509015
1 1.347524 6.640531 9.211251
2 0.202066 6.725616 9.242531
1 -0.008154 6.999425 -0.311404
1 0.354865 6.218989 1.909777
2 0.805519 5.597980 2.776319
1 -0.421435 5.853200 4.700663
2 0.013457 6.765565 5.154595
2 0.594334 7.363404 5.894887
1 1.121745 7.868704 7.639278
2 0.780749 6.716138 8.259511
2 0.666936 7.762699 9.208330
1 0.615484 8.135859 10.351001
2 0.231668 6.649465 0.794477
1 1.124641 6.005086 1.354712
2 0.648556 7.968122 2.870817
1 0.403868 7.399748 3.690335
1 0.031507 7.836779 4.923624
2 0.202629 8.320646 6.282189
1 0.281605 7.453996 6.881366
1 0.775932 8.792565 8.518578
1 1.416098 8.473771 9.626013
2 0.355552 8.727164 9.642360
1 0.246751 7.696985 0.603597
2 0.729879 7.196840 1.552658
2 1.570278 8.900147 1.159679
1 0.346012 8.406948 4.050154
2 0.718477 8.742720 4.983909
1 0.099539 9.592965 5.207395
2 0.919447 9.143120 6.244666
1 0.584351 9.073374 7.423882
1 -0.017263 9.491750 8.668040
1 0.908479 9.148507 10.338429
2 -0.300958 9.169656 1.351953
2 1.389507 9.265156 2.789519
2 0.666647 10.110538 2.980445
1 2.264906 9.586723 3.660058
2 0.289151 9.841099 4.172348
2 0.762607 11.036039 5.677844
2 0.455080 10.460222 6.898869
1 0.412057 10.204439 8.144148
2 0.081730 11.251057 8.670114
2 0.867607 11.213218 9.705283
2 -0.048831 9.555227 0.082950
2 -0.061898 10.251479 1.557695
2 1.369900 11.081610 2.046487
1 0.092491 10.599125 4.985634
2 1.194214 10.101857 4.852295
2 1.122219 0.637271 6.904621
1 0.019202 0.459852 7.505707
2 -0.095470 1.451766 7.779891
1 1.188108 1.570818 8.882913
1 1.766714 0.838823 10.827658
1 0.380486 0.729601 1.416105
1 1.452408 0.903908 1.148962
1 -0.874369 0.241668 2.938481
2 0.373326 1.378234 3.729104
1 0.363808 0.845527 4.870714
2 1.235628 1.345272 6.019277
2 0.193619 1.451383 6.606717
2 0.894241 1.847130 7.347201
1 0.229309 1.592091 8.848470
1 0.263782 1.067647 10.281115
1 0.678914 1.181339 0.568639
1 -0.013670 1.630132 1.348366
2 0.459296 0.949133 2.513304
1 0.345370 1.942873 2.750735
2 0.185764 2.160793 4.578745
2 0.793688 2.507613 6.333431
1 -0.144848 2.372134 7.127665
2 0.085890 2.497659 8.182190
2 0.315417 2.557072 9.380396
1 0.515082 2.758228 10.655351
2 1.637538 3.116871 0.540110
2 1.169404 3.058784 1.724570
1 0.939061 1.836656 1.829800
2 1.056764 2.293771 3.833098
1 0.944711 2.929236 4.935579
1 0.339724 3.460749 6.821199
2 1.099385 4.086963 7.441864
2 0.811353 4.160732 8.437580
2 -0.004353 3.524955 9.220390
1 0.043841 3.724006 10.238298
1 0.441514 3.577385 0.667038
1 0.949222 4.170760 2.411819
2 1.301288 3.375651 3.090396
1 1.291477 4.972233 4.292262
1 0.971373 4.298628 5.301783
1 0.034353 4.563839 5.527963
1 0.287494 4.422116 6.570788
1 0.279673 5.841434 7.456197
1 -0.175598 4.704579 8.675814
1 -0.492170 5.562992 9.204880
1 0.175215 4.538230 0.114374
2 0.655076 5.132605 1.776717
1 0.355122 5.211487 3.700850
2 1.391696 5.839037 3.750098
2 0.476326 5.462039 4.975687
1 1.150089 6.464856 5.805077
1 1.724281 6.074333 6.521341
2 1.383496 5.875062 7.591469
1 2.089739 6.144334 8.611244
1 0.983785 6.876058 10.361245
1 1.626266 6.072142 0.053144
1 0.367969 5.609188 0.756116
1 2.298205 5.703128 1.685033
2 0.588105 6.308742 4.309218
2 2.320422 6.304766 4.272868
1 2.324926 7.379787 5.860070
1 1.371578 6.999068 7.163845
1 1.857111 6.916255 8.199989
2 2.644178 6.827247 9.151070
1 1.663594 8.049923 10.696842
2 1.304625 6.780621 0.648914
1 2.535162 7.434269 2.385217
1 1.436224 6.667450 2.330960
1 1.344044 6.954372 3.702650
2 0.883836 7.343435 4.671667
1 2.702522 8.925423 7.040334
1 1.486394 7.895114 6.621507
1 1.824282 8.389684 8.111567
2 1.753016 7.705235 8.898930
2 0.548324 8.721673 11.503215
2 1.320761 7.882062 0.961131
2 1.548246 7.833493 2.164175
1 1.217035 8.521308 3.562649
1 1.884134 8.102064 4.340989
2 1.316776 8.137365 5.631455
1 1.663967 9.218215 5.409528
1 1.752995 8.873868 7.210937
1 1.355440 9.689921 8.408744
1 2.303717 9.731253 8.853724
1 1.738318 9.741971 9.559476
1 0.788013 9.782661 0.553194
1 1.695935 9.068688 0.175550
1 1.977541 9.336663 1.993907
1 2.291162 8.780810 3.164372
1 1.520053 9.079131 4.326734
2 1.391593 10.105378 5.875213
1 1.372957 9.861852 7.088610
1 1.230355 10.863638 8.419481
1 0.729529 10.261921 9.143191
2 1.336913 10.118403 10.574523
1 0.356049 10.636147 0.296212
2 0.845828 9.586138 1.672160
1 1.395104 9.930419 3.727048
2 0.519647 10.931770 3.667993
1 2.349416 9.979827 4.745152
1 1.838847 0.290286 6.164748
2 1.882426 0.632682 7.746541
2 0.850829 0.998596 7.910350
2 2.074930 0.924638 8.788613
2 2.203293 0.479322 9.881205
2 1.689478 1.851435 -0.081574
1 0.930160 -0.094326 1.168066
1 1.712916 -0.204756 2.959353
1 1.404292 0.783136 2.992460
2 1.693031 0.415347 5.135490
2 2.321509 1.230560 5.765608
1 1.983250 1.537866 6.803080
2 1.930291 1.676821 8.073267
2 2.052826 1.931430 9.583470
2 2.668020 2.235281 11.144207
1 1.322264 1.901221 0.892794
2 2.417997 0.574365 1.545519
2 1.700491 1.841893 3.129243
1 1.520798 1.045956 4.006868
2 2.797237 0.577247 4.682670
1 1.967627 2.319563 5.883375
2 1.002420 2.980583 7.744763
1 1.177600 2.659195 8.741132
2 0.941598 1.756311 9.934144
2 1.753678 2.886219 10.251957
2 2.726734 3.371907 0.338410
1 1.890049 1.502895 2.117932
2 1.957178 2.603160 2.498551
1 2.152731 2.655721 3.622382
1 1.187908 1.841450 4.790780
1 1.175286 3.506409 6.362818
2 2.090883 3.420480 6.874206
2 2.414572 3.748731 7.870445
2 0.934488 3.641228 9.583801
2 1.627094 4.688611 9.830773
2 1.082700 3.933525 -0.103394
2 0.987229 4.491016 1.031394
1 1.857396 3.616341 2.299458
2 1.453367 3.606360 4.227593
2 1.755153 3.651731 5.272634
2 1.115056 5.098599 6.064814
1 0.836263 5.016130 7.464692
1 1.641068 4.744608 8.544012
2 0.722094 4.828208 9.328842
1 1.175712 5.755426 9.859153
2 1.198016 5.089971 0.020647
1 1.777844 4.644631 1.793063
2 1.386654 4.501220 3.236267
1 2.160527 4.413760 4.138205
2 1.555295 5.673465 5.165231
1 2.155178 6.420635 5.765060
2 2.314752 5.258239 6.041789
2 2.402808 5.712210 7.205765
2 3.099888 5.938954 8.811677
2 2.198620 6.397831 10.043603
1 3.028092 6.285643 0.647882
1 2.099986 7.079039 1.393599
2 2.883129 5.789646 2.465573
1 1.760342 5.493552 2.564001
1 2.897524 6.436179 5.162988
1 3.228347 7.088237 5.811723
2 2.558632 6.808069 6.824691
1 2.372123 7.664223 7.238240
2 2.815918 6.664212 7.954815
1 2.405032 7.643715 9.942770
1 2.575976 7.078353 0.072966
1 3.236797 7.816612 1.857938
2 2.240894 6.724020 2.991896
1 2.697229 7.189699 3.927583
1 1.833901 7.147330 5.026081
2 2.471840 8.691037 5.781541
1 3.404261 7.823745 6.804078
2 3.171738 8.623728 7.933973
1 2.791618 7.757734 8.112105
2 2.257419 8.736722 10.129215
1 3.056244 8.540961 0.319739
1 2.304751 8.133818 1.465018
2 1.933051 7.754187 3.252735
2 3.211732 8.201593 4.145751
1 2.627598 7.962533 5.040029
1 2.667187 8.968030 4.574675
2 2.245669 9.658646 6.244648
1 2.563937 9.603985 7.917529
2 2.644330 8.592732 8.955829
2 3.090985 9.266845 9.633280
1 2.612202 9.684652 0.176746
2 2.744491 9.186672 1.207038
2 2.891471 8.701698 2.170846
1 3.951847 8.618947 3.684577
1 3.472399 9.482709 4.174647
2 2.623179 10.543156 5.598892
1 2.124147 10.454059 7.010843
2 3.276960 9.997246 8.508488
1 2.486193 10.206507 10.017563
2 3.255392 10.666654 10.459866
2 1.788778 9.939903 1.034893
2 2.421985 10.294174 2.076445
1 3.184235 9.424086 3.155514
1 2.686807 10.454702 3.146682
1 1.493787 10.854126 4.051543
2 2.786972 0.797147 6.634323
2 3.102664 0.522462 7.790576
2 2.298803 -0.113691 8.353537
2 2.974003 0.150950 9.171776
2 3.597093 0.877006 9.960332
2 2.871563 1.059418 0.321149
2 2.321832 -0.102893 0.361952
2 2.680186 0.826143 2.804479
1 2.271802 0.541149 3.674710
1 3.520685 1.193153 4.194564
1 3.002877 2.565141 5.602956
2 2.982599 1.977707 6.616883
2 2.890047 1.673636 7.604372
2 3.117223 1.885554 9.008583
2 2.840809 1.566142 10.179394
2 2.318593 1.518542 1.177274
1 3.581056 0.777573 1.073407
2 3.337535 1.004841 2.001462
1 2.689456 1.707071 3.579127
2 2.226505 1.491095 4.769891
2 2.752000 3.520927 5.815669
1 1.925365 2.517947 7.355994
1 2.923796 3.011807 7.399314
2 2.523403 2.656149 8.211362
1 2.704596 2.728691 9.700381
1 3.149530 4.324856 0.346661
1 3.323139 3.026120 1.095906
2 2.195637 2.651970 1.512236
1 3.075438 2.790721 3.049391
2 2.026054 2.642698 4.873366
1 3.165882 4.599380 5.965571
2 3.051777 3.944436 6.949968
2 2.023985 4.745279 7.193511
1 1.843643 3.792031 8.905974
1 2.121787 3.776881 10.014334
2 1.941456 4.264272 0.237283
2 2.259104 3.740038 1.146562
1 2.882993 3.413332 2.103989
2 2.728828 3.827696 3.138194
2 2.645668 3.605951 4.618315
1 2.426763 4.519035 5.196490
2 1.855425 4.249069 6.241470
1 2.741274 5.210446 8.049582
2 2.391261 5.310190 9.291999
1 2.410334 5.330124 10.878107
1 1.765792 5.268570 1.043932
2 2.696052 4.787778 1.135887
2 2.434864 4.695186 2.712685
1 2.622137 5.476539 5.064374
2 3.427441 4.204101 4.940585
1 3.560242 5.440812 5.817197
1 3.216309 6.194905 6.447093
1 3.906894 6.663765 8.164540
1 3.753561 6.717592 9.354377
2 3.449347 5.629961 9.915703
2 4.085246 6.258738 0.889038
2 3.161600 6.550567 1.655580
2 4.085727 5.714938 2.599754
1 3.280688 6.111527 3.361272
2 3.756423 5.725005 4.838196
2 4.213099 6.688375 5.268176
1 3.949281 6.870591 6.984391
2 3.783089 7.676601 7.771594
2 3.329172 7.679395 9.340187
2 3.608836 6.555871 10.489133
1 2.971369 7.456343 0.956163
2 4.506883 6.619109 2.208394
1 3.500949 6.857092 2.836384
1 3.900378 6.597044 4.329056
1 3.696206 7.431262 4.777965
1 3.877427 7.840078 5.761745
2 4.180082 8.611688 7.318347
2 4.057238 8.409033 8.702773
1 3.494133 8.354570 10.200473
1 4.189991 7.464674 9.912420
2 3.456546 7.582307 0.065770
2 4.174146 7.449320 1.368534
1 3.771767 8.532866 1.305366
2 3.202613 8.084220 3.042813
2 3.919723 7.371223 3.690787
1 3.941243 9.672558 5.065759
2 3.533797 8.813791 6.139468
1 4.333839 9.505404 7.894657
2 4.564979 10.075681 8.776878
2 4.188265 9.052846 9.595364
2 4.216006 8.247372 0.447201
1 3.747062 9.330816 2.197596
1 4.492604 8.688933 2.355907
1 4.565265 9.850338 4.205807
1 3.600780 8.601525 5.017389
1 3.098729 9.415113 5.407516
2 3.246861 10.422328 6.513632
1 3.450944 10.241197 7.517775
2 4.971721 10.780831 9.556286
1 3.787606 10.104325 9.502896
2 3.720481 9.605724 -0.217883
2 3.177042 10.339206 1.412575
2 3.476568 10.740928 2.386781
2 3.844174 10.262242 3.389250
1 3.390220 10.468413 4.638363
2 4.104810 1.465038 6.158866
2 5.226200 0.480985 7.213570
1 4.071883 0.093169 8.025651
1 3.993819 0.535933 8.982146
1 4.476668 -0.016405 10.482269
2 3.845688 -0.266790 0.523316
2 4.492200 0.961964 1.748942
1 3.722379 0.714383 3.282919
1 4.679983 0.035176 3.660220
1 3.789811 0.600413 5.358013
1 4.598632 2.420367 5.956078
1 4.723602 1.807670 7.027436
2 3.994489 0.863692 7.019064
2 3.924021 1.286938 8.102400
1 3.876678 1.826982 9.946325
1 4.099509 0.946823 0.232958
2 3.708136 1.912122 1.025398
1 2.939771 2.179493 2.049042
2 3.396723 1.705464 2.824460
2 3.281670 1.592443 5.211651
1 3.686345 3.001986 6.205415
2 3.833170 2.311690 7.411335
1 3.815471 3.383972 7.161548
1 3.635072 2.733785 9.301411
1 3.437163 2.769538 10.544404
2 4.327305 2.303606 0.233048
2 4.596392 2.811875 1.168454
1 3.770340 3.614361 1.761044
1 3.940600 3.014710 3.756664
2 3.014728 2.327158 4.306790
1 4.084296 4.309527 6.411093
2 3.485538 4.415170 8.004586
1 2.566008 4.417301 8.633127
2 3.009065 3.558573 9.147780
2 4.246415 3.743458 9.383406
2 3.930130 3.485704 0.407145
2 4.225766 4.332534 1.172658
2 3.874159 3.684364 2.840379
1 3.448754 3.981357 3.972485
1 3.508819 3.055834 4.856116
1 4.431002 4.926885 5.638014
1 3.316070 5.000241 6.801768
2 3.509729 5.912498 7.541983
2 2.746606 4.605834 10.250636
1 3.498355 3.836308 10.237830
2 3.560292 5.355058 0.374254
1 3.400824 5.498836 1.565767
1 3.366001 4.535186 1.823592
2 2.386354 5.469854 3.551756
2 3.136003 4.978845 4.286553
2 4.225692 6.189296 6.164387
1 4.665565 5.923180 7.220711
1 4.624116 5.947724 8.396427
2 4.290013 5.523889 9.295263
1 4.630218 6.462080 10.116503
1 5.048310 6.552349 1.192659
2 5.216553 5.764494 2.019393
2 4.429445 4.808741 3.100053
1 4.192330 5.594282 3.746342
1 5.140457 5.919581 4.308408
1 5.001720 7.139121 5.715757
2 4.954001 7.055350 7.715718
1 4.668862 6.962102 8.890371
2 5.439930 7.232594 9.848799
2 5.259644 8.009140 10.569560
2 4.466171 7.016060 0.272870
2 5.320789 7.728986 2.071001
1 4.603533 6.526473 3.361043
2 4.840601 7.212728 4.238056
1 5.034556 5.744923 5.613691
2 4.624793 8.910856 5.953374
2 4.608017 7.636059 6.522986
2 5.911578 8.568650 7.815783
2 4.799351 8.226280 9.451228
1 5.787940 8.945445 10.494175
2 5.376607 7.620614 0.913995
1 4.818629 8.586030 1.317264
2 4.160063 7.620597 2.423299
1 4.698063 8.095837 3.574626
2 4.673416 8.207262 4.726319
1 5.083714 9.855496 6.303759
2 4.066012 9.564673 6.725241
1 4.927908 8.081087 8.052539
1 4.823560 9.016471 8.716094
1 4.683265 9.885973 10.033600
1 4.659094 8.777071 -0.382461
2 4.072621 9.597506 1.209851
1 5.422551 8.398549 2.972625
1 5.446315 9.173607 3.985884
1 5.216675 9.301619 5.188899
2 4.167870 10.380774 5.897642
2 4.367151 10.536488 6.980645
2 5.278641 10.883136 8.348456
2 5.612661 9.623354 8.389436
2 5.647011 9.886849 9.383834
2 4.914939 10.273669 0.909839
1 4.119992 10.735859 1.485434
2 4.677327 10.048725 2.131840
2 4.723374 9.485008 3.255014
2 4.474125 10.584253 4.864090
1 4.969391 0.510639 5.983986
2 5.118437 -0.642687 7.550149
1 5.038425 1.293130 8.171738
1 4.815496 1.288618 9.231782
1 4.639260 0.882230 10.145519
1 5.304320 0.287751 0.283233
1 5.801456 0.686871 1.395028
1 4.836143 0.282046 2.612321
1 5.262944 0.859071 3.505633
1 4.389847 0.817066 4.329888
2 4.502844 1.554237 5.156877
2 5.321269 1.519621 6.065506
2 3.444631 3.224211 8.333051
2 4.427264 2.247207 8.955150
1 4.921838 1.794360 10.155318
1 4.921728 1.659686 0.787923
1 4.078148 2.150323 2.130102
2 4.541219 1.377071 2.740105
1 4.093412 1.903529 3.853497
2 4.409900 2.560080 4.791833
2 5.581537 3.506238 4.736503
2 4.770103 3.050284 6.843988
2 4.786122 2.426194 7.872385
1 4.473439 3.317467 8.283657
2 4.484312 2.851121 10.116384
1 5.240815 2.947833 0.036276
2 5.421419 2.166068 2.117355
1 4.477309 2.380943 3.100405
1 5.539040 1.964729 3.285793
2 5.564408 2.785295 4.024562
2 5.337014 4.192105 6.511471
2 4.587588 4.189968 7.421686
1 4.364991 4.962352 8.439323
2 5.168530 4.550798 9.395117
2 4.697126 3.931072 10.411045
1 4.959673 3.865417 0.668809
1 4.584549 3.172147 2.218103
2 5.366583 4.285867 2.762514
2 4.474708 3.734802 4.497025
2 4.410000 3.529504 5.594588
2 5.592785 5.131238 6.138453
1 4.564378 5.108114 6.611535
1 5.396516 5.400225 7.931300
1 3.348490 4.888402 9.173539
2 4.068466 4.713476 10.058899
2 4.488286 5.622200 -0.053880
2 5.318613 4.816277 0.146445
1 4.826727 4.773504 2.010638
1 3.440378 4.874189 3.068520
2 4.467245 4.970763 4.537114
