1000
Lattice="17.099759466766965 0.0 0.0 0.0 17.099759466766965 0.0 0.0 0.0 17.099759466766965" Properties=:species:S:1:pos:R:3 Time=1000
1 9.502674 6.951089 10.855639
1 8.007914 9.107235 8.678969
2 9.918960 10.268835 12.983034
1 8.639287 8.172874 16.978138
1 9.602528 8.287765 15.664118
2 8.957157 9.110942 1.861378
1 8.070903 9.016346 2.602151
1 9.780178 10.658300 4.909663
1 11.362367 9.912429 6.017415
1 10.177061 8.268720 8.558898
1 9.458492 13.752532 9.904265
1 9.153261 12.362776 10.254985
1 8.211287 11.518995 12.758863
1 8.094830 12.287978 13.347443
1 8.439966 10.239818 16.550332
1 9.533490 10.647272 -1.028299
1 8.776055 11.812026 4.335398
1 7.660549 11.054984 4.699967
1 10.470374 11.659666 5.460823
1 8.967897 11.586630 5.929296
1 4.987996 12.423179 10.873528
1 9.231481 12.043317 11.210290
1 8.801240 11.869506 13.810976
2 8.899358 12.614459 14.532894
1 9.638736 11.152417 14.679527
1 8.519219 14.112379 -0.094102
1 10.626053 11.637008 3.122740
1 10.088264 12.685991 4.971649
1 9.022283 13.957771 5.168039
2 10.890400 13.625820 8.669698
2 9.765624 14.483129 8.867246
1 8.509267 14.344560 9.432131
1 8.713698 13.217181 12.708465
1 7.153209 13.060393 13.746718
1 10.705808 13.617109 17.217002
1 6.797228 15.841240 0.807753
1 8.084327 15.722762 1.999508
2 10.529652 14.613185 5.391891
1 8.680404 14.118081 7.308421
1 9.337552 13.006426 5.830734
2 10.240721 18.921294 9.816568
1 8.286272 16.337091 13.243511
1 11.276040 18.382355 10.896767
2 8.047307 19.325459 15.452799
2 6.617813 15.287873 15.478538
1 8.163148 15.962227 0.094826
1 9.644845 17.155174 -0.296784
2 10.504842 16.386328 3.810473
2 8.315520 16.250090 6.782773
1 9.088319 15.495015 6.955031
2 8.661003 1.752633 7.670191
2 8.638271 2.348816 12.873183
1 10.279425 -0.933478 12.076034
1 7.408745 0.155551 12.556296
2 10.067986 1.827268 16.895745
1 8.982791 -0.616387 -0.857516
1 9.996241 -0.315289 2.683038
1 9.176598 -0.700844 2.234586
1 10.724588 1.598838 8.314688
1 7.091884 0.697441 7.939539
1 10.762375 3.092320 8.573468
1 8.195618 4.577586 11.455327
1 8.070362 4.168591 13.305747
1 9.483837 5.394114 15.619479
2 8.618804 1.540158 16.621045
2 10.979794 2.670901 -0.848290
1 9.564821 3.387131 2.530870
1 7.411853 3.372985 3.066266
2 11.359860 1.336355 5.713186
2 8.440689 3.242516 8.259656
1 11.488054 5.889190 9.916581
1 7.396456 4.354064 12.443544
1 7.429004 6.926817 12.785392
2 6.227107 5.905343 17.125037
1 10.108468 3.432448 16.953016
1 9.947460 4.712089 -0.007571
1 9.224653 7.166178 1.106320
1 9.231631 5.105019 4.371132
1 9.383700 2.454255 5.966341
2 10.894511 5.587336 8.987463
2 8.106688 5.418575 10.748957
2 7.966655 5.352818 12.913878
1 8.505329 7.326944 12.542797
1 8.047536 6.238553 15.583824
1 10.910600 6.520697 15.049650
1 9.531916 6.978528 0.126796
2 9.245225 5.298463 2.705727
1 7.631748 5.775163 5.016488
1 8.524813 5.837472 6.211368
1 11.001407 5.736190 6.271617
1 9.671803 6.039246 9.605278
1 10.151017 7.671424 11.191752
1 9.617406 7.896756 13.244370
2 8.645266 8.379653 13.451626
1 10.211406 6.152935 16.165432
1 10.720606 8.230425 -1.610591
1 10.208870 8.011867 3.078842
1 9.099658 8.306141 4.096996
2 8.433249 8.565183 6.848472
1 9.639105 7.490934 7.939525
1 10.754042 8.640543 7.485494
1 10.651857 9.877357 12.301921
1 9.366769 9.239784 13.458267
2 11.482988 11.004296 14.142307
1 11.321399 7.615438 16.250803
1 10.056314 9.471377 0.205458
2 9.910549 8.051743 0.538002
1 9.777044 6.960264 4.267102
1 13.555584 6.269035 7.135868
1 8.869314 8.589386 7.979203
1 12.135107 11.549896 8.490774
1 11.481285 12.480735 10.911820
2 10.776295 9.728104 13.776719
1 14.522420 9.537851 14.001330
1 11.075462 9.437388 14.815097
1 13.199809 8.851055 1.154871
1 9.015074 9.303979 2.900255
2 10.258080 10.594775 3.063650
1 12.723183 11.163531 5.853295
2 10.779682 12.373212 7.916485
1 12.491470 12.468581 9.126190
1 10.807776 11.148530 12.893712
1 10.716193 11.771785 14.261733
2 11.241800 12.130941 13.169189
2 13.008874 13.409815 17.084066
1 11.838326 12.120039 0.348605
1 10.349487 13.910728 2.753354
2 11.918732 12.731222 5.671673
1 11.899763 12.044320 7.399357
1 10.554984 14.599692 8.152740
1 11.969864 13.741368 8.841206
1 13.096059 13.454665 9.069927
1 12.148311 13.664267 11.839663
1 12.316489 16.345735 15.740085
1 12.106591 14.178651 16.441534
2 12.144821 15.368221 2.572056
1 9.918599 14.960795 3.208953
1 11.057277 15.572496 5.480341
1 11.251344 12.367577 6.663266
2 12.002768 15.335570 9.259476
1 12.302617 16.771718 8.723717
1 11.447784 16.877102 12.483149
1 8.871874 17.395130 11.732624
2 9.029040 16.152957 14.091835
1 12.340525 15.229458 15.879468
2 11.198915 16.214764 1.096538
1 13.088460 15.927563 3.042258
1 10.751839 15.539086 4.356382
1 10.152525 15.497606 7.430165
1 11.301416 17.582757 6.919688
1 11.300563 -0.243885 8.316904
1 11.965668 1.941139 11.186891
1 10.864629 1.661763 12.445632
1 11.831182 1.568135 13.586892
2 10.246000 1.292186 15.776455
1 11.495518 0.732370 2.036053
1 11.222763 -1.252962 3.102256
1 12.946538 2.693480 2.349336
1 11.228170 -0.567329 6.096934
1 9.403325 -0.544805 6.659811
1 10.712222 2.940026 7.254601
1 9.299560 3.022698 13.044342
1 8.817118 3.654528 12.117212
2 11.797167 2.185328 15.349711
1 11.297757 1.496460 17.106021
2 11.371279 4.663457 0.519013
1 10.450588 2.867567 3.537301
2 13.114308 3.171749 4.346777
1 12.347854 0.971455 6.705584
1 13.326686 2.067609 7.885648
1 12.495643 3.812467 8.302613
1 10.073767 3.490316 10.456425
1 11.236570 2.543931 9.728212
1 9.347053 3.872237 16.028625
2 11.499231 4.785577 16.289786
1 10.272226 6.079885 0.239783
1 12.688302 4.976383 2.249046
1 10.642106 4.226043 4.486060
2 13.821087 5.813055 3.472952
2 10.636236 6.703664 7.168156
1 9.832054 4.722502 11.675860
1 9.178089 5.773472 10.837453
1 11.013390 6.342799 14.007085
1 9.577585 5.439720 14.558083
1 11.906071 6.545728 13.592410
1 10.718264 7.157807 -0.126639
1 10.065441 7.788091 5.093176
1 10.555076 6.090248 4.355280
1 11.404129 6.393944 4.661725
2 13.441741 4.018601 8.709807
1 11.676873 6.484435 5.782783
1 11.307894 8.187073 11.443765
1 11.416069 9.419615 12.973711
1 11.625748 7.795185 14.594189
1 13.054424 7.654939 17.481707
1 9.186001 8.039942 1.672471
1 11.323169 7.825833 1.599191
1 10.992869 5.498670 3.409082
1 9.293106 9.897917 6.109779
1 9.813673 10.726714 6.566516
1 12.493522 8.238516 8.814703
1 11.804385 9.736256 12.025964
1 13.513998 8.848447 11.682441
1 12.425288 8.560918 14.747830
1 12.234695 8.844663 12.723807
1 15.418602 11.326518 1.968162
1 14.765297 7.583501 5.083215
1 14.388320 9.100724 1.217138
1 12.134714 9.431093 7.870536
1 14.059234 10.453364 6.769806
1 13.009784 12.225350 8.128828
1 13.538036 11.622609 10.978564
1 9.403663 10.285586 11.070853
1 12.387909 11.424761 14.580004
1 12.789484 10.328556 16.115274
2 12.766253 11.876668 0.841507
1 11.557392 13.118391 4.187621
2 12.688534 14.152575 3.824142
1 12.736632 12.145282 6.292925
2 10.299860 10.959635 7.680486
2 13.525374 14.318031 12.556882
1 11.595755 12.325067 11.896076
2 13.840213 13.684676 13.544018
1 13.855936 11.429001 14.207434
1 14.123987 12.528612 17.094396
1 13.955444 14.803123 0.794255
1 14.667742 12.744071 2.385138
1 13.122353 12.920813 4.674303
1 11.392810 11.640187 5.793021
2 14.535961 12.888186 5.511350
2 13.317245 14.309492 10.114823
1 14.998826 17.096361 11.934171
1 14.824854 12.918980 13.177470
2 14.163132 16.167885 13.670503
1 11.182884 17.122410 15.980028
1 12.134130 15.543084 0.152496
1 10.118543 14.739479 2.046844
2 11.568277 14.249239 2.941854
1 12.883199 14.030636 4.959471
1 16.121213 15.552087 6.172128
1 13.311579 17.453166 11.144501
1 12.383096 17.975498 11.260922
1 12.707681 18.106620 13.111885
1 14.521470 17.979764 13.287938
1 11.685587 18.126513 14.757681
2 12.151559 15.108613 1.256925
2 12.073804 15.259067 3.895448
1 14.646406 15.760877 4.708735
2 14.443407 17.041027 4.590947
1 15.896364 16.678789 9.421920
2 12.913006 0.701381 9.964921
1 13.022762 2.020381 11.513476
1 12.111214 1.599517 12.402399
1 13.762740 0.959753 15.376251
2 11.988366 0.573036 17.473292
2 12.516796 3.393461 1.787724
1 13.901510 1.374155 4.764454
1 13.217990 1.190850 5.483676
1 14.313806 -0.594910 7.807899
1 14.705778 0.311671 8.112504
1 11.307192 2.768057 12.075017
2 12.176494 2.736742 8.857795
1 11.762358 2.755497 14.007982
1 12.554018 1.360453 15.323339
1 12.230116 2.320990 16.495139
1 13.368728 2.781711 -1.117025
1 12.513072 2.321202 4.115787
2 15.676048 0.661585 4.933480
2 13.038245 3.352288 6.978197
1 11.371292 3.900997 8.117828
1 13.896113 4.817033 9.400943
1 12.324175 3.447978 9.923949
1 12.959905 4.487724 14.609688
1 13.396094 7.804174 14.165248
1 11.751945 3.080903 17.247190
1 12.661362 5.215208 0.559390
1 13.535888 5.316038 1.245861
1 13.459276 2.420992 5.263324
1 10.724474 4.790892 5.348491
1 12.051208 3.166710 7.717507
2 14.442489 6.057153 8.720296
2 13.697744 7.029354 11.092474
1 12.595887 4.883139 11.524255
1 14.302059 7.045442 13.888901
1 12.233268 7.203573 15.228287
1 12.138621 6.634455 1.053434
1 10.934955 6.710118 3.170954
1 13.515520 5.433074 5.344451
1 12.054758 6.633492 6.777875
1 11.904986 3.942195 7.047331
1 12.813871 8.191187 9.966446
1 12.309791 8.633857 10.824660
1 12.984719 8.230759 13.249863
1 12.197332 7.568244 13.418888
2 11.607285 6.645797 16.000219
1 12.337083 10.173210 1.807560
1 12.972120 7.493750 3.385995
2 12.137454 6.356592 3.815507
1 14.411302 6.581430 5.699204
1 11.335895 7.331008 6.583065
1 15.453506 8.307470 9.842295
1 14.537763 10.811377 12.982525
1 14.403386 8.306657 14.370851
2 16.298597 12.319276 13.963377
1 14.197066 8.303662 15.445963
1 17.185350 7.782522 0.926418
1 13.648738 9.190982 2.797396
2 12.522457 8.571941 3.518929
2 15.481075 9.513549 5.531409
1 16.365981 8.720218 6.355280
2 13.484680 11.297140 9.274359
2 13.552394 7.412864 7.562261
1 12.075786 10.973607 12.962720
1 16.110471 9.323696 13.826373
1 16.656084 12.161051 15.410708
1 15.661432 12.898053 1.767903
1 15.344458 11.119178 2.981620
2 15.570867 9.183180 3.141171
1 15.364864 10.008305 4.509400
1 15.788720 10.606306 8.632644
2 17.664128 13.685033 11.776299
1 14.474445 10.942631 11.833225
2 15.532408 11.438652 11.976809
1 14.667748 14.175059 15.576871
1 14.504794 15.356690 16.476586
1 15.374210 14.458732 0.877362
1 15.757260 12.943773 3.090194
1 15.093706 14.080745 5.175226
1 11.276982 10.427701 3.609104
1 12.903898 14.679097 8.772100
1 14.103928 14.629108 7.343944
1 16.951137 13.839867 9.092976
1 15.563542 15.809062 15.576255
1 14.526810 14.115042 16.641617
1 11.615627 14.043617 17.212850
1 14.311636 13.946777 2.282038
1 13.334015 14.462611 2.585749
1 13.720729 13.310102 3.616955
1 16.559924 14.509332 6.965893
2 15.077788 16.006770 8.946133
2 16.078476 14.296770 8.574534
1 13.891996 18.567473 10.964516
1 13.675383 15.780367 15.558832
1 13.823753 15.945085 11.715458
1 13.743648 15.693396 17.116603
1 12.927543 14.944305 0.325290
1 13.637392 15.332086 1.720294
1 13.964070 18.253822 3.688431
2 13.702246 16.139957 5.329174
1 16.211950 15.543371 9.230479
1 14.397223 2.617329 7.991385
1 13.516719 3.518721 10.308516
1 15.962021 1.735484 11.653260
2 13.448546 1.165865 12.240811
2 17.454739 -1.860618 16.700437
1 16.441783 -0.136882 1.166426
2 14.470544 -0.675279 3.580836
1 11.965671 1.070404 2.812550
1 15.422428 3.079113 6.640974
1 10.379038 0.017702 8.774189
2 14.753145 4.171476 10.319367
1 13.795290 2.634528 6.998976
1 13.217401 2.369475 13.045342
1 13.384823 1.776741 16.218192
1 13.947365 2.179034 15.243757
2 16.435829 0.347598 -0.270732
1 14.664922 2.301252 4.796292
2 15.713629 1.611312 5.505519
1 15.996759 2.974322 5.327465
1 14.717843 3.397567 7.405166
2 14.662931 1.974768 9.231533
1 14.022236 2.199014 12.045692
1 13.627437 3.258777 13.873826
1 15.028813 3.793454 13.039490
1 15.941681 1.438937 18.165350
1 16.467615 4.404747 0.489080
1 13.883178 3.912158 5.237992
2 13.509296 3.556183 3.242201
2 13.952427 3.747193 6.371970
1 14.515711 4.060589 8.108308
2 14.922519 7.498961 8.810128
1 14.226392 5.622169 10.909416
2 15.224209 5.204984 12.482610
1 15.372291 7.687864 14.876992
1 12.711165 6.227574 14.859159
1 13.669508 7.604585 -0.864769
1 13.887069 4.563860 3.640916
2 16.347071 5.278937 5.110677
1 12.833043 8.011624 6.984898
1 13.653437 4.078818 7.419606
2 14.498514 7.892850 10.405770
2 16.827149 8.480885 10.878693
2 15.305328 10.107445 12.313243
2 14.807837 7.220972 16.259426
1 16.729096 8.821048 18.073375
1 13.587250 6.701815 4.035082
1 15.426882 7.109987 3.643756
2 14.295437 7.913239 6.008736
1 13.388276 5.883487 8.297363
1 14.917495 6.917918 6.679157
1 15.547035 9.492648 9.065564
1 14.258506 9.637152 12.439390
1 16.893856 10.272454 13.924531
1 16.577924 8.119820 15.615208
2 16.660516 10.026411 18.224410
2 13.839008 10.261445 1.490957
2 17.786536 9.832848 3.652579
1 17.221904 7.624880 4.880717
1 15.061374 10.608606 6.445440
1 16.378610 9.363780 8.250951
1 16.769729 10.598232 8.477110
1 17.233671 10.549205 11.955945
2 17.460346 11.641096 12.775348
1 17.259241 8.624256 16.342716
1 13.780788 13.474875 18.059631
2 15.463366 10.169435 1.743549
1 16.209749 11.987545 2.296152
1 16.201455 9.522362 4.045269
1 16.422621 10.315251 5.393660
1 16.584919 11.925761 6.543977
1 16.538563 12.501023 9.242401
2 17.775375 13.297969 9.451646
2 17.399200 12.589879 13.353596
1 15.132254 13.083744 15.392374
2 15.382891 14.169501 14.727317
1 17.853635 12.978142 4.115179
1 16.863447 16.662054 2.446450
1 15.600721 12.107687 6.138076
2 17.242008 13.581453 5.228241
2 16.668793 12.817092 7.519235
2 17.372900 15.862420 8.427042
1 16.650580 13.695685 10.450806
2 15.952571 12.559225 11.648430
1 14.541512 15.084904 14.721509
1 15.369650 14.995094 17.065532
1 16.088494 16.363622 -0.836024
2 17.076592 13.720738 2.995563
1 16.792740 15.941900 4.938584
2 15.584448 14.915876 7.727602
2 17.719273 14.455223 8.796297
1 16.930331 16.576731 9.185540
2 16.409983 17.247126 11.900703
1 15.520712 17.263552 12.996821
2 15.708778 16.930021 14.990584
1 17.021085 15.966414 15.580344
1 12.043131 18.638457 0.919441
1 16.780643 19.695968 2.272186
1 18.037316 14.210847 4.934598
1 13.491938 18.669867 6.822276
2 15.378972 16.513153 5.838845
1 16.355532 2.395858 12.553887
1 16.803499 1.760159 9.048866
2 16.420048 0.602321 12.927660
2 16.202736 0.393350 14.153659
2 15.756042 1.664889 16.962451
1 17.492218 0.351983 2.052310
1 15.713137 -0.283902 2.057954
1 16.741580 0.964102 4.260284
1 15.601475 1.668034 7.291561
1 15.180923 0.272305 6.531950
1 16.020384 3.551729 8.666515
2 16.968589 3.566997 7.937206
1 16.256170 2.116361 13.697050
1 18.740570 2.797916 13.680101
1 17.775657 3.979174 17.141025
2 16.352974 1.343535 -2.211641
1 15.879113 3.680489 3.251171
1 14.784267 3.739919 3.634940
1 14.607236 4.860125 5.442450
2 17.231150 3.933748 9.012471
1 15.369430 4.657062 9.547300
1 15.223832 4.109498 11.703023
2 19.835033 3.841022 12.494457
2 16.238510 2.817223 15.605119
1 17.374890 2.918708 13.950713
1 18.655641 5.394957 1.723300
1 14.924063 5.292509 3.610259
1 15.462073 3.776067 5.869459
1 17.732480 6.162531 7.880929
1 14.947731 5.104054 7.116909
1 15.265884 6.382821 9.640892
2 18.585122 6.592620 11.675750
1 16.108583 3.114586 13.716352
2 13.182931 6.909373 13.627297
1 17.597966 6.595784 16.180786
2 16.536950 5.680727 1.011002
1 16.086250 5.331600 3.856787
1 16.325915 7.664513 4.240884
1 15.397709 5.889506 5.755410
1 16.648671 7.592420 6.239250
1 17.167231 10.113870 6.234022
1 16.998164 7.481176 11.420201
1 16.647422 9.475677 12.875078
1 14.737330 6.967191 14.739588
1 15.297281 8.424612 16.021813
2 15.969657 6.518118 1.831795
1 17.611608 6.942875 1.491090
2 16.318000 8.190342 2.756365
1 16.979728 6.516105 8.800006
1 16.243638 7.507975 7.712025
1 0.770841 11.011749 10.598692
2 0.741174 8.688024 11.629808
1 1.750810 9.244270 11.517926
1 -0.120665 8.018079 12.396811
2 0.399325 9.229888 13.801137
1 0.289912 9.286430 0.226095
2 1.216055 9.495855 2.529660
1 0.204076 8.745102 2.520961
2 -0.321012 9.200467 5.169931
1 0.556259 12.344282 7.347412
2 0.448551 12.362589 9.910518
1 3.184006 11.327133 12.260084
1 1.601854 11.103606 13.087194
1 0.703133 10.822612 14.184223
1 3.304747 8.270611 14.596628
1 1.047073 10.423883 0.864808
2 -0.800908 9.091957 2.029576
2 2.110302 12.345283 3.358429
2 -0.385112 11.309078 5.164807
1 -0.890201 11.524346 8.094484
1 0.556248 10.844687 9.543287
1 1.713610 12.932836 9.647626
1 0.619326 14.012642 13.683943
1 2.354531 12.536693 14.005364
1 0.429769 13.673452 18.190092
1 1.453506 12.765141 -0.061057
1 0.594640 11.604012 2.287997
1 1.898586 14.991836 0.937144
1 0.189863 13.856541 6.367119
2 0.262130 12.768413 8.558299
2 0.884134 15.100550 11.643651
1 0.290723 14.398019 9.924392
1 0.177387 12.739090 10.992992
1 1.923652 15.356143 12.821704
1 1.475508 15.488867 16.424673
1 -0.839937 13.564931 -1.370777
2 0.665825 15.898702 3.861523
1 0.654521 15.337412 5.180406
1 3.003037 14.089131 5.116855
1 1.176389 15.569916 6.055849
2 0.867757 17.598794 9.108350
1 0.639022 16.354356 12.200807
1 -0.149425 16.763452 13.695384
2 -1.286604 15.273819 14.587443
1 0.822142 19.107208 17.717027
1 0.351950 15.646985 1.404562
1 1.540841 18.654922 3.185183
2 0.613955 17.579557 3.970499
1 0.170336 15.707703 6.900613
1 1.552670 15.539711 8.587515
1 1.306073 1.572448 8.559307
1 0.182965 0.955541 13.500001
1 0.190540 1.843328 12.870673
1 1.517774 3.464641 14.677311
1 3.269356 0.006597 18.044135
2 1.219211 -0.230029 1.586971
1 0.212140 1.357301 2.490868
1 -0.435126 2.929836 3.240100
1 2.296938 -0.227764 5.004306
1 -0.742941 -0.595845 6.776677
1 2.310753 2.557611 10.117890
1 0.354910 4.296904 11.722849
2 0.066738 1.528225 10.227807
2 1.751091 2.242398 15.078997
1 0.837755 2.811501 15.705979
1 2.354893 2.589229 2.924137
1 0.907140 2.300842 2.573594
1 1.908273 0.626914 3.472831
1 -0.431769 3.406287 6.547091
1 0.625456 4.255563 7.508627
1 1.808193 4.678065 9.445396
1 -1.233669 3.169090 10.193300
1 -0.012718 4.714166 13.065685
1 0.091508 3.050160 12.537390
1 1.134768 3.927032 15.950917
1 1.440081 6.156051 0.824651
1 0.399638 4.860075 0.524403
1 0.666852 3.256554 1.900327
1 0.873760 3.997044 5.736254
1 3.469768 6.291200 4.868233
1 1.979195 6.972350 10.550709
1 0.015094 6.581469 11.574123
1 0.631452 9.828487 11.359940
1 1.615836 4.540340 15.270592
2 1.060138 7.134820 17.498772
1 2.359713 8.435426 -0.418687
2 3.193933 3.169739 1.468145
1 -1.293714 4.505969 4.443337
1 0.661277 5.680702 6.169444
1 1.465829 6.217080 8.405986
2 1.998243 5.654285 9.815252
2 0.665871 8.742313 10.382690
2 0.491353 10.162126 12.979661
1 -1.074255 8.043286 13.651790
1 -0.883139 7.259896 14.485234
1 -1.780102 8.672454 2.058328
1 2.122134 8.857390 3.043517
1 -0.118384 7.982185 1.887039
1 1.850852 6.985348 4.856317
2 0.706691 8.505008 5.845753
1 2.012106 10.793808 10.441729
1 2.659935 9.424209 9.267735
1 1.564866 9.312040 13.413089
1 3.520488 10.254418 12.684750
1 2.849086 10.305565 14.532129
2 0.841358 8.560035 0.830279
2 1.241496 8.112540 2.823480
1 3.748397 10.502718 4.014658
2 1.464661 10.429953 8.339927
1 1.561831 7.482952 7.409485
2 1.892175 11.650700 9.298620
2 2.473395 10.430222 12.054735
2 4.612393 9.530909 12.203493
1 4.088046 12.799810 15.301822
1 1.489698 11.780879 13.951028
1 2.224911 10.463003 3.851320
2 4.399935 9.310873 3.530164
1 3.088255 10.214013 5.741397
1 1.832175 11.631985 4.536452
2 0.924398 10.907792 7.128974
1 4.855591 12.725558 11.858948
2 2.711863 14.315205 11.461005
1 1.807374 12.726065 12.216507
1 2.465827 12.272656 15.107341
1 3.462461 12.803613 18.494890
1 2.075808 11.105057 0.272663
1 4.342450 13.559982 1.899472
1 2.597046 12.028968 6.111477
1 4.824520 13.921006 6.471586
1 2.376971 12.933999 7.752676
1 2.800194 12.721016 9.180939
1 1.740005 15.087820 10.726213
2 1.379030 13.892392 12.661979
1 2.667863 12.503173 16.038109
1 4.522927 14.374914 16.471168
2 0.961351 14.651064 2.602122
1 3.983196 15.351632 1.764850
1 4.597893 15.262778 3.919699
1 5.278709 13.007872 4.065949
1 0.381075 13.697651 7.484100
1 1.672340 16.405597 11.926564
1 1.307232 16.187573 9.358916
1 0.325692 17.650401 11.425435
1 2.385321 16.597477 13.558407
1 2.873615 13.461869 16.000753
1 0.165533 16.952158 -1.332988
1 1.464829 15.081697 3.615919
1 1.777960 13.391931 3.505118
1 0.789256 18.361968 5.794408
1 4.159822 16.054251 4.895804
1 1.684591 -0.187114 8.717390
2 3.180637 2.180981 11.668108
1 2.469526 0.805078 14.278870
2 0.429178 0.023182 14.536640
1 1.404152 -1.202663 13.498305
1 1.905094 3.617976 -0.571338
2 1.345708 0.732506 2.442189
2 1.559584 -1.019197 4.551475
1 2.258496 2.160940 3.754752
1 2.705649 0.730402 9.640814
2 1.941860 2.006350 5.970849
1 1.732239 2.864830 12.341193
1 6.119403 2.586024 12.871156
1 4.392479 4.175144 14.331891
2 3.647406 5.078418 16.934659
2 3.912999 3.839461 0.796554
2 3.308860 1.183410 3.690487
1 2.414129 5.793571 4.459681
1 2.626615 1.011403 6.005945
2 4.215921 4.887048 8.666076
1 2.692945 0.479719 8.112102
2 1.554515 3.593050 11.446290
1 3.562700 4.803969 12.120822
1 2.368380 3.949212 14.049325
1 3.105380 3.444830 17.395411
2 5.958886 3.401203 0.784437
1 5.600644 3.236753 3.459842
1 3.388798 2.593849 2.305088
1 2.783944 3.940144 5.945139
1 4.253489 2.879973 6.811494
1 3.640681 6.909161 7.799172
2 3.974277 6.926907 10.399435
1 1.052282 3.792051 13.782656
2 0.918230 5.181396 12.643649
1 1.154260 7.493434 16.485200
1 2.845012 5.923083 -0.258097
1 0.893318 6.999204 2.481752
1 3.201510 4.543122 3.746341
1 2.772992 5.047118 6.952191
1 3.194279 5.120636 9.371650
1 -0.076904 9.803052 9.784588
1 2.109069 8.090104 12.710690
1 1.979056 7.478712 11.750175
1 2.814848 6.875151 11.672637
1 2.280889 9.837891 17.552510
1 3.327809 8.048315 -0.013578
2 3.645434 9.060916 2.416292
1 2.725070 8.142845 3.768370
1 1.241344 8.684257 4.160308
1 1.707294 8.712685 10.624184
2 5.182777 9.037812 10.933803
1 2.689624 8.522620 11.485341
1 3.774954 9.055047 11.250673
2 5.094541 10.719066 15.907519
1 4.871094 10.903689 14.287056
1 2.124816 9.955192 1.668754
1 5.139692 11.061161 3.811388
1 3.875504 9.118903 4.510122
2 5.470108 9.678574 6.324766
1 5.765537 10.104616 5.053360
1 4.589958 10.701866 10.614352
2 4.417077 10.607982 11.628644
1 3.268550 12.207862 12.712486
1 4.011593 10.987153 13.420369
1 1.981197 11.007033 15.047417
2 4.207963 11.759462 1.271803
1 4.152564 11.035944 2.872301
1 5.170467 10.377726 3.061160
1 4.136765 13.012546 5.319464
2 3.453836 11.639731 9.109663
2 4.814824 14.630612 8.804790
1 1.805352 12.716255 10.716494
1 4.693809 13.769420 11.605059
1 4.553485 14.321798 14.069455
1 2.137817 15.477355 17.205209
1 5.900994 13.532275 1.323940
1 6.974664 12.874237 2.480464
1 2.221853 13.477468 5.906358
2 4.965190 11.943574 3.264343
1 5.089456 11.854825 7.677315
2 6.074921 13.144761 6.934569
1 3.300445 12.129443 11.111966
2 4.058554 13.158505 12.511642
1 6.315498 14.517834 10.955758
1 3.104609 11.753033 17.949447
1 3.118426 16.111119 1.086999
1 5.249136 14.575653 3.454261
1 4.950258 12.503684 1.546732
1 6.041983 10.675497 6.039173
1 4.891399 15.227914 6.392842
1 4.628787 17.297669 9.643424
1 3.201003 15.512711 12.459134
1 2.622996 14.689312 12.484970
1 5.027876 17.300709 15.187237
1 3.636386 15.371245 15.454196
1 5.092660 14.133505 0.684283
1 4.060344 17.538173 1.626766
1 3.647972 13.497406 6.509831
1 4.250364 15.143142 2.844062
2 2.393069 18.973302 7.221491
1 3.715261 0.831968 9.434945
1 3.244818 1.457514 10.628145
1 4.464256 -0.172643 12.801354
1 6.258953 -0.842998 14.808865
1 4.512588 -0.430048 13.988324
1 5.881638 1.103326 -2.709157
2 3.224763 0.522464 2.350024
1 3.890992 0.139716 5.131304
1 4.258618 0.719224 7.146490
1 3.897384 0.113215 7.958137
1 3.477659 3.322750 8.732047
1 5.937923 5.509108 8.772803
1 3.592901 3.927314 13.015116
1 5.068038 4.823413 13.744855
1 4.435847 4.700343 16.391923
1 3.332196 1.581833 1.805847
1 5.370485 1.235428 1.026142
2 5.266051 2.264603 3.580442
2 4.510188 3.651469 6.027171
2 6.236663 1.079317 7.530157
1 7.446573 5.637883 9.473091
1 2.670088 5.534188 11.729004
1 5.905168 5.108827 11.244812
1 3.407527 4.761019 14.135995
1 4.437049 2.690446 17.236611
1 4.946860 4.814223 0.550315
1 2.713204 4.461484 2.607678
1 4.010876 5.590237 4.003466
2 5.360004 3.934989 5.304966
1 5.062301 3.182020 7.824233
1 5.208796 7.684199 9.131502
2 3.992740 7.956776 10.896938
1 6.275043 7.532306 12.485205
1 2.339452 6.406831 12.626916
2 5.924876 4.102293 16.722334
1 7.126984 6.815348 -0.586902
1 4.380999 5.880834 1.456915
1 3.945713 7.819458 0.865470
2 4.924886 5.153841 5.751776
1 4.562871 4.871096 7.309890
2 5.577895 6.638093 8.177504
1 6.830110 7.885006 11.112441
1 2.753431 6.080156 10.808063
2 5.303569 5.256067 14.739378
1 6.433451 8.400144 17.146974
1 4.619882 7.527463 0.025499
2 2.727271 8.671066 0.658085
1 4.157891 6.685149 2.834688
1 2.460647 7.633907 8.165318
1 2.769602 7.272560 9.780350
1 5.789112 10.037079 7.629444
1 3.934498 9.854466 9.939093
1 4.789175 9.994280 13.319007
1 6.618492 7.558339 13.887594
2 4.940920 9.290314 16.127024
1 6.547525 9.139677 2.160392
1 4.490592 9.713193 2.337691
1 6.766113 9.830823 4.275540
1 5.012713 8.651929 7.213647
1 5.616551 8.746417 8.802155
1 8.269357 12.432622 5.996998
1 5.707036 10.954248 11.655452
1 5.084527 11.484327 12.452520
1 6.702700 13.581550 16.307237
1 5.963714 10.260883 16.809020
2 4.694682 10.095968 1.381225
2 5.079225 11.491068 2.247361
2 3.966857 12.300565 4.328025
1 4.736287 11.544088 4.934867
2 6.790335 11.433286 12.131078
2 4.876440 10.957723 9.412540
2 6.024223 13.611633 12.756092
2 6.056944 12.142425 11.443203
2 4.450655 12.520510 13.377433
1 7.440780 12.984445 16.619952
1 6.012731 13.661362 0.235864
2 6.142112 11.101387 4.327224
1 5.883661 14.314040 2.409642
2 8.264995 13.239065 5.323735
1 7.067032 12.063180 8.737289
2 6.857367 15.795877 7.809276
2 5.757037 13.525422 11.263296
1 5.670102 15.133524 14.402217
1 7.848041 14.749996 13.427780
1 6.687332 13.587519 14.934159
1 7.527780 13.903541 0.813727
1 6.380449 14.550584 0.398533
1 5.688392 12.632066 5.497330
1 6.307077 16.358901 5.925356
1 5.653800 14.091274 9.834783
1 5.234045 15.913395 7.556276
1 5.319422 16.662448 10.812369
1 3.302775 14.596536 13.334235
1 7.053574 17.050843 15.596836
2 5.968363 16.600468 15.931218
1 7.838403 16.778262 2.917416
1 5.095630 16.518900 2.711979
1 4.785211 17.832668 2.476471
1 5.007188 16.618417 6.055988
1 5.502157 14.628451 7.229351
1 6.556603 1.042929 9.541372
1 7.962560 0.794404 11.498980
2 6.974290 0.090485 11.220794
1 7.108372 1.172501 13.521549
1 7.225134 1.062417 14.981417
2 7.709215 1.135385 -1.091561
1 4.667972 1.420245 4.124624
1 5.822541 1.505324 4.163909
1 5.826116 1.980297 5.742831
1 8.072558 0.115401 7.182953
1 5.818410 3.126043 11.861457
2 6.791487 2.965771 9.798629
1 6.714529 1.181436 11.082591
1 7.186884 3.461873 13.333603
1 4.810639 4.395122 15.421016
1 6.689108 0.977538 1.568417
1 4.065541 2.289144 1.097138
1 4.792243 2.791917 4.999703
1 3.085457 2.080603 5.325929
1 4.663814 1.673757 9.253885
2 6.451711 4.738131 9.353978
2 4.865896 4.442566 11.599914
2 4.826485 3.913973 12.557451
1 8.545968 3.061705 15.832888
1 4.588516 4.093617 17.176278
1 6.599399 2.814813 -0.058401
2 3.843647 2.761011 3.329237
1 7.908048 4.000091 6.224510
2 5.758845 3.371256 6.334450
1 5.499734 6.141558 6.696303
1 4.604240 6.174490 10.693123
1 4.809014 5.417353 12.436321
1 7.370249 5.264268 13.859003
2 5.781030 4.050074 14.852503
1 4.290761 6.266970 17.607469
2 5.201910 5.942248 0.859074
1 5.898001 6.712837 2.388776
1 4.911485 6.271782 5.035928
2 5.529504 7.160641 4.909237
1 5.661081 5.039291 6.811300
1 4.723698 8.860357 9.747287
2 5.392731 7.799092 11.470431
1 6.167981 10.020457 11.562107
1 5.719477 6.912003 16.781814
1 5.256457 7.620452 17.952135
1 6.071577 8.487850 1.198326
1 4.437851 7.490274 4.667595
1 4.537748 8.255399 2.757509
1 7.127551 10.222247 5.350897
2 7.478545 6.426105 8.571331
1 10.120075 11.701432 11.544933
1 8.350302 10.278278 10.010683
1 8.145774 8.454095 12.401106
1 8.068311 7.386920 16.297481
1 8.852927 12.180366 16.642340
2 7.724705 9.316657 -0.327225
2 8.992321 6.468245 3.336801
1 8.435926 7.678687 4.914088
2 6.626230 10.615910 7.896482
2 6.631218 9.228563 7.519443
1 8.288468 11.994823 8.630268
1 8.181569 9.787196 11.885515
2 7.099614 11.391597 13.431191
1 5.874752 10.902307 13.312103
1 6.016019 12.192776 14.712286
1 7.029105 8.615080 0.969771
1 8.614824 10.260491 3.436331
1 8.310737 10.621266 5.502109
1 8.179048 13.420862 6.438143
1 9.925980 11.921228 6.832512
1 7.778114 13.917406 7.567908
1 7.759909 12.153200 10.864895
1 6.606887 15.111894 11.832538
1 7.862400 13.644334 15.809258
1 6.713205 14.630777 16.368894
2 7.702148 9.804405 0.860333
1 9.166512 15.208279 0.359740
1 9.526976 15.282399 5.171835
1 8.782942 11.403479 9.546209
1 5.830979 11.342010 8.193408
1 8.991277 16.454852 7.717480
2 8.625333 15.161525 11.260101
1 8.561516 12.373127 12.010358
1 6.146497 14.003232 14.104163
1 5.324159 15.720964 15.476112
2 5.150205 16.688865 -0.457413
1 7.841578 13.870686 4.165965
1 10.435074 13.355291 6.642651
1 9.004777 14.998960 4.252276
1 8.013312 14.934718 7.906474
1 7.966549 17.822620 9.534932
2 7.440208 16.104445 12.006425
1 6.640369 17.896709 12.107028
1 8.283881 15.425855 15.073828
1 9.006586 15.461841 13.429205
1 8.252312 17.738443 0.148225
1 8.256519 15.037325 1.169821
1 7.121600 17.781424 2.582738
1 6.265654 16.773190 7.186470
1 7.849345 16.293584 8.652219
1 9.460476 0.073516 9.858922
2 10.217198 -2.209636 11.641375
1 8.690907 1.009709 12.717236
1 8.103571 1.479528 14.295297
2 9.459727 0.136735 18.200874
2 7.211888 1.836951 -0.333940
1 9.919797 0.707628 1.989665
1 7.764392 1.647454 3.892459
1 7.132236 0.243870 5.819899
2 6.255456 -0.335410 8.209320
2 5.348154 2.626913 9.212645
1 6.962174 2.093022 8.363447
1 6.981364 2.762293 11.075882
1 6.506299 2.805193 16.001029
1 8.021991 2.571185 16.872271
2 6.754214 3.391566 1.705529
2 6.625955 2.083173 3.382862
1 8.009625 2.933988 4.486352
2 6.810852 2.244255 6.604743
2 7.565742 3.179195 7.236319
2 8.075830 4.447243 8.355419
1 6.909331 3.906985 11.180801
1 7.197142 2.248343 13.833096
2 8.165827 3.479225 14.113261
1 9.575008 5.348815 17.864465
2 7.222742 5.474486 1.004669
1 8.898696 3.934149 0.449779
1 6.946045 3.746497 4.007411
2 7.487054 4.660661 6.940530
2 9.552040 6.545694 7.538578
1 8.428529 6.407115 9.556756
1 6.894979 4.871747 10.446314
2 9.418694 9.463074 12.252685
1 9.198432 4.121885 13.214946