1000
Lattice="14.938015821857212 0.0 0.0 0.0 14.938015821857212 0.0 0.0 0.0 14.938015821857212" Properties=:species:S:1:pos:R:3 Time=1000
2 8.987490 6.936577 10.618781
1 6.075526 7.554579 6.639597
2 7.509731 8.709016 10.851758
2 7.457761 8.066171 14.475721
1 7.960471 6.167987 14.087994
1 6.203031 7.913451 0.741430
1 7.785896 8.072306 2.562658
1 7.185653 9.469339 3.368236
1 10.180316 7.917887 6.129044
1 7.594471 8.675001 7.000348
1 8.941565 12.237410 8.456165
1 4.963840 11.979309 9.080169
1 6.630899 10.453379 11.223449
1 8.367971 11.090926 11.822485
1 6.465932 9.823989 14.635080
2 9.196546 9.355431 -1.129013
1 7.807210 9.877004 2.618745
1 6.594736 10.321914 3.572460
1 7.898654 9.175004 5.095076
1 7.136336 10.335512 4.395186
2 5.757119 11.317829 8.357627
1 7.531273 10.405492 10.298530
2 7.400448 10.343971 11.875984
2 8.343684 12.086772 13.063350
2 7.593258 9.345789 12.952144
2 7.574413 12.485517 0.876951
1 8.834349 10.720292 2.753246
1 9.061783 12.190518 3.654368
1 8.832322 11.686786 4.957377
1 9.181644 11.739552 7.151125
1 8.292366 13.018479 7.546014
1 8.149187 12.177689 9.175657
1 7.157681 11.532264 11.389137
2 7.441406 12.509576 12.435669
1 9.891631 12.034042 15.095514
1 5.487679 14.116814 0.884352
1 6.684785 12.838401 3.317225
1 10.130706 13.139314 5.704227
1 7.931265 11.421769 5.369318
2 8.870460 10.797662 5.630135
1 8.619258 15.692508 7.873237
1 6.013229 14.117715 10.436350
1 8.891947 15.755510 10.712483
1 6.543774 15.479107 13.624491
2 7.441828 13.888434 13.816666
1 6.986172 13.570634 0.016437
1 8.092248 14.383068 -0.152315
1 8.984101 14.015525 3.536822
2 7.174423 14.861906 6.640237
1 8.919730 14.251718 7.180826
1 8.560520 2.365276 7.626260
1 7.161705 1.660371 11.585921
1 9.644680 -0.818966 8.947437
1 8.668474 1.462876 11.762618
1 9.378711 0.890335 14.264150
1 8.436202 -1.497085 -2.297293
1 9.008459 0.504619 4.433272
2 8.786278 -1.211738 1.869818
1 10.223354 1.376068 7.756103
1 7.284788 -0.292154 7.961433
2 8.158159 1.705937 8.459090
2 7.338660 4.722630 9.306120
1 8.432708 3.254187 11.079084
2 8.782372 3.363369 12.141841
2 7.109659 -0.285702 14.492784
1 9.381041 2.981585 -0.933169
1 9.910085 2.760473 1.335296
2 5.939536 3.091602 2.945154
1 10.355108 1.397103 3.796833
1 8.860985 1.818748 6.295751
1 8.987629 3.444336 8.022233
2 6.268821 5.221131 11.103451
2 7.328699 3.517412 11.306025
1 7.056315 3.607152 13.603800
1 8.669220 2.336639 15.456785
1 8.765872 4.990075 0.600112
2 9.836688 5.876503 1.536368
2 8.789290 4.573714 3.633070
1 7.607057 3.526992 4.022199
2 8.898034 4.497426 7.631840
1 6.598815 3.860142 7.432549
1 6.473966 5.305568 10.021123
1 6.583500 7.150637 11.438563
2 7.339873 5.366692 11.483273
1 8.804623 5.639910 12.478478
1 7.691961 5.017229 0.144437
1 8.213621 4.784891 2.444039
1 7.181338 5.057693 3.043053
1 7.627393 6.052570 5.510866
1 8.859300 6.314211 5.343904
1 8.702407 4.931567 8.973767
2 7.951706 5.769834 10.051412
1 8.439600 6.113545 11.560089
1 8.409515 6.925461 12.154844
2 9.122531 5.769490 14.047082
1 8.627244 7.503011 -1.459910
2 8.160227 5.812346 1.861903
1 8.074239 6.734903 4.368061
1 7.699100 7.199175 5.535572
1 8.350294 6.403227 7.140700
1 8.548228 7.632425 6.792615
2 8.619732 9.110811 11.032895
1 9.462417 8.665669 12.110440
2 8.686940 9.881735 12.920184
1 10.064419 6.881284 13.558336
1 9.438348 8.497681 0.180017
1 9.025961 8.615370 1.429677
1 7.589360 5.976901 3.621577
1 10.613958 5.888105 5.892860
1 8.280783 7.332396 8.119251
1 11.252548 8.927856 7.440434
1 9.893572 10.112883 10.140914
2 8.375361 8.832177 12.207843
1 11.006619 6.085688 12.956840
1 10.111506 9.995484 13.517759
1 11.614086 6.974769 1.359829
1 8.866572 7.070553 2.957517
2 8.819718 8.070561 2.560656
1 12.313245 10.205942 6.103206
2 9.402218 10.657537 6.907881
1 10.858171 10.744011 7.765245
2 9.046621 11.271338 9.592835
1 9.035830 10.967056 12.958518
2 10.412157 11.326001 12.742811
1 11.840193 10.683156 15.085978
2 10.111234 10.648892 0.913068
1 9.407321 11.242946 1.727456
1 10.637641 11.054250 4.883898
2 10.363014 10.718730 6.121353
1 9.931931 11.792117 6.169477
1 11.039582 12.195487 6.970031
1 11.507601 11.653873 8.144464
2 10.381070 11.492643 11.230443
2 10.619084 13.075424 12.858495
1 9.504875 12.399257 13.445393
1 9.864338 13.702620 1.410696
1 8.424275 12.293146 1.590130
1 11.010169 13.026625 5.108176
2 9.981673 12.484446 7.267023
1 10.321030 13.945400 7.138699
1 10.929485 14.706513 7.628675
1 9.865177 14.793541 11.061789
1 7.488086 15.118148 8.964886
1 9.296822 13.769017 12.988056
1 9.838836 13.331983 15.218754
1 10.030659 14.925980 1.012657
1 11.900626 13.326413 3.058043
1 10.524808 14.970177 3.489431
1 8.817498 14.108788 6.118831
1 9.965720 15.098855 5.181240
1 11.059639 1.620014 6.665777
2 10.364016 0.721431 10.769443
1 9.312793 1.867094 11.003560
1 10.402557 1.393121 11.739118
1 9.473058 0.550634 13.091348
1 9.641625 1.006541 1.530897
2 9.789669 -0.416432 2.616834
2 10.741456 1.251967 2.705411
1 8.869110 0.129738 6.510494
1 8.219835 -0.935430 5.181588
1 9.239008 3.925968 6.208707
1 7.274032 2.562421 12.228566
1 8.968207 4.651214 10.294991
1 9.977929 2.362215 12.373450
1 8.902153 2.176283 13.673143
1 10.790402 3.425812 -0.542571
1 9.324457 3.018142 2.751534
2 11.266224 4.314398 3.063128
1 11.421512 0.931037 5.974046
1 11.098516 2.564630 7.128577
1 12.087833 2.585511 8.925181
1 9.270327 2.925504 8.831862
1 10.864665 1.795522 10.489259
1 8.599813 3.002989 13.158797
2 7.253086 3.358117 14.830009
2 8.873250 4.351735 -0.592867
2 11.020114 5.642760 2.460078
1 10.127520 3.919890 4.256493
1 11.024933 4.993482 4.553935
1 8.978302 5.548120 7.236173
1 8.907067 6.313257 9.141386
1 9.500653 4.530617 9.495751
1 9.861579 5.385204 12.892823
1 8.239736 4.333292 11.779603
2 9.166441 5.060660 11.429081
1 10.619213 6.767521 -0.518836
2 9.230307 7.233645 4.494840
2 9.607573 6.035186 2.697103
1 9.527086 5.106637 4.299289
1 10.557799 3.765189 7.842143
2 9.910947 4.500839 5.415496
1 10.089818 6.773737 10.263707
2 9.446363 7.727655 11.390910
1 8.954094 6.396162 13.253512
1 9.804491 6.329527 15.187985
1 8.397737 7.487810 1.705419
2 9.370779 6.858923 1.719052
2 9.982935 4.706256 3.266634
1 8.327635 8.345070 5.598962
1 8.919578 9.095506 5.965941
1 10.680544 7.391712 7.363407
1 10.561176 9.416816 10.695613
1 11.137873 8.479537 9.570652
2 10.334501 7.902934 13.292251
1 10.512893 10.346449 12.518875
2 13.171588 9.618688 0.314315
1 11.934307 7.002085 4.835752
1 10.844282 7.815830 2.414086
2 11.679775 8.629677 6.333664
2 13.327059 8.760218 5.223027
1 9.734467 10.467860 7.944667
1 12.622214 8.835879 9.966104
1 8.687012 9.764438 10.115111
1 9.656512 9.727894 11.445059
1 12.385971 7.998251 13.417817
1 11.238298 10.807358 1.071385
1 10.038452 10.361008 3.566331
1 10.896723 12.331519 2.429774
1 8.666226 10.399179 4.605744
1 9.457799 9.429658 6.727446
1 12.219045 12.521485 10.541062
1 9.551668 11.081134 10.621804
2 12.708837 12.165990 11.528027
1 12.652048 9.920991 12.240613
2 12.885369 11.283922 14.461504
1 10.834854 13.287801 1.588775
1 12.642645 11.059180 2.002000
1 11.472359 11.947804 6.029820
1 8.324311 9.553754 4.057844
2 11.635932 11.387812 4.372919
1 11.910467 12.123636 9.106412
1 13.955411 13.421683 10.757524
1 11.108151 12.330499 12.010613
2 11.184444 13.440937 11.632546
1 10.690923 12.201660 13.719409
2 10.418352 13.447809 -1.015307
2 10.761011 13.565729 3.182681
1 9.424495 13.162853 2.539467
1 12.828576 12.852681 4.273669
2 13.770411 12.839040 5.654756
1 10.644608 15.689903 9.623310
1 9.740353 16.567898 9.500140
1 12.002569 15.316836 9.861422
1 11.594688 13.816526 12.745570
1 10.891173 16.538359 12.659026
1 11.075351 14.828705 1.348077
1 10.039764 12.325140 3.175402
2 11.564722 12.653352 4.124408
1 10.858906 15.591564 4.798396
1 14.121222 15.032405 7.654949
2 10.411203 0.281028 8.644460
1 11.323094 0.825254 8.871165
2 11.625548 0.655918 11.288122
1 11.818085 0.977531 12.431930
1 11.080853 -0.145613 15.129507
2 11.632095 1.742676 2.185753
2 10.765763 2.389844 3.030115
2 11.474089 -1.020901 4.260929
1 11.676267 0.235730 6.971586
1 12.356166 0.997798 6.787389
2 10.318089 2.568182 10.090216
2 9.766450 2.672778 7.175425
1 10.626694 2.589835 13.139489
1 12.230900 0.251667 13.727499
2 10.144930 1.583868 13.795873
1 11.719712 2.330021 -1.149369
1 10.906181 2.348371 5.295755
2 13.478772 -0.075779 4.001009
1 10.373348 0.344970 6.344110
2 10.284699 2.808686 6.229726
2 13.212039 2.601302 8.878860
2 9.956010 4.097988 8.472145
2 10.672458 4.153243 11.611775
1 11.192144 6.917320 12.304830
1 9.882248 3.682816 13.200958
1 10.627574 4.855863 0.542771
1 11.419027 5.188132 1.375533
1 11.303289 2.243455 4.104726
2 8.816199 4.195587 4.606106
2 12.251120 4.370503 5.556927
2 11.392146 3.822256 6.521304
2 13.259734 6.532282 10.694880
1 11.612713 3.501410 10.869702
1 12.814733 4.822667 11.263289
2 10.009928 6.440100 12.605152
2 11.005883 6.803634 0.479594
1 9.155812 5.992620 3.690147
1 12.239764 4.813999 4.267138
2 11.612030 5.509654 6.369888
1 10.208875 3.792838 6.686259
1 10.925000 7.295753 8.635013
1 11.133599 7.215163 9.782488
1 12.061872 7.142119 11.871295
1 10.518413 6.923865 11.365794
1 9.462088 7.536219 12.640087
1 10.657810 8.238995 1.419891
1 12.441557 7.445741 3.129985
1 10.250011 6.429674 3.725405
1 12.682943 6.153825 4.646064
1 10.515726 6.819503 6.142080
2 13.910248 7.127688 9.678451
1 12.964259 7.468978 9.986942
1 12.774866 8.034833 11.170401
1 13.540462 10.583347 11.996268
1 11.899965 7.033066 13.382304
1 14.277459 5.760596 1.418613
1 12.522588 9.226718 2.075075
1 11.257739 8.626039 4.358610
1 13.301627 6.804493 3.864454
1 13.126408 7.770629 5.940485
1 11.651776 10.435239 7.088514
2 13.148977 8.372168 6.923001
1 11.214654 9.574353 11.367057
1 13.861243 7.383083 12.622363
2 14.253740 10.492182 13.403859
1 14.626180 10.969682 1.466823
1 12.974900 9.429157 3.187631
1 13.374811 7.978077 2.837552
2 14.205939 8.962166 4.053754
1 15.206464 8.305994 6.780356
1 15.060013 12.199046 10.159871
1 11.950804 10.014677 8.804513
2 13.174131 9.550200 10.409305
1 12.687631 12.350668 12.752978
1 11.978597 12.364569 13.664324
2 14.273003 12.418638 1.130304
1 13.768387 10.190999 3.196285
1 14.491760 12.972954 2.987671
1 10.098247 8.532551 2.924163
1 11.475306 13.416497 6.947313
1 12.877980 13.411450 5.863983
2 15.613756 11.222701 8.440224
1 12.853042 13.503691 13.016679
1 12.773379 12.617862 14.074633
2 8.704024 13.660442 13.985012
1 11.095439 11.548656 0.295926
2 12.080808 12.691163 1.384748
1 12.071531 12.087618 2.382420
1 13.779568 13.841169 6.132686
1 14.152840 12.531142 9.698039
1 13.103869 12.860992 7.057525
1 12.705036 16.111637 10.068715
2 12.101862 14.170311 13.669031
1 12.100214 13.451908 11.158950
2 12.096007 13.226370 14.753412
1 11.835684 12.172954 0.095588
1 10.758818 15.018144 2.218876
1 12.615979 16.823297 3.985811
1 11.004796 14.083965 5.463114
2 14.654527 13.940600 7.507422
1 12.775891 2.425804 6.209985
1 11.614248 3.348960 8.466129
1 13.491959 -0.380693 11.799731
1 11.725261 1.405001 9.714915
1 13.395734 0.295361 12.785726
2 14.553052 0.166288 0.580804
1 12.371709 0.522262 2.579157
2 11.878561 0.760740 3.761632
1 13.451302 2.331615 5.207825
1 9.785408 0.120900 7.649111
2 13.535881 4.380831 8.548880
1 11.797333 2.064919 6.262996
1 11.408861 1.693934 11.759475
2 11.799266 1.954384 12.912739
1 12.706392 2.007101 14.101854
2 14.666960 0.621780 -0.444406
2 13.869509 0.819427 3.333148
1 15.134349 1.043603 3.515376
1 14.872706 2.604840 5.414817
1 12.765618 0.345237 8.033532
1 13.397555 3.262392 7.938272
1 11.926229 2.201534 10.769910
2 10.506611 2.959860 11.342557
1 11.867093 2.791868 11.770702
1 14.425592 2.008759 14.835611
1 13.017092 4.169022 -0.071440
1 13.112838 1.091591 4.327053
1 12.423374 3.919842 3.117649
2 11.763379 3.139766 5.545737
1 13.426709 3.927054 5.511669
1 13.900484 6.028158 7.622949
2 12.538682 3.917336 9.070085
1 14.448781 3.799680 10.904256
1 11.955504 5.305993 13.063414
2 11.416981 6.290667 14.072851
1 12.850993 7.295949 -0.561217
1 11.523842 3.782637 3.996240
1 13.210331 4.729419 3.661530
2 11.672185 6.606353 6.030228
2 11.991501 3.793255 7.473332
1 12.923503 6.845003 9.118653
1 15.024903 7.515664 9.064961
1 13.520930 7.169422 11.569309
1 12.726462 6.234885 14.414693
1 14.157664 9.030129 15.896900
1 11.497995 5.393801 3.672364
1 14.112198 6.420180 2.749422
1 13.456172 5.602639 4.271015
1 12.319449 5.271128 7.554337
2 13.176464 6.454697 6.697463
1 13.419010 7.601463 8.513947
2 13.318992 9.106343 12.192432
1 14.228639 9.361248 11.143180
1 12.909483 7.123480 13.071170
1 14.851219 8.145252 15.877160
1 12.331866 8.049027 1.694489
1 14.771670 8.053428 3.604402
1 15.716874 7.927625 4.167918
1 13.205185 10.049278 5.269104
1 14.232119 7.111767 7.617047
1 13.805186 9.131996 7.603392
1 14.668168 9.572604 9.886694
1 14.349479 11.208555 11.681526
1 15.530751 7.255360 13.676781
1 11.639440 11.808253 16.174217
1 13.373206 8.563398 1.558767
1 13.631503 9.784966 2.035876
2 14.335667 8.809934 2.595637
1 15.407112 9.354222 3.529424
1 13.206681 10.065688 7.738306
1 14.210897 10.270470 7.810950
1 15.722142 12.509522 9.081444
2 14.960088 10.199318 12.609838
2 13.666736 12.406052 13.397989
1 13.282242 11.439077 12.871501
1 14.562336 10.737127 2.591778
1 15.089105 14.659289 1.642797
1 15.234958 10.444174 5.453462
1 14.401003 11.624746 5.287220
1 14.092476 11.861320 6.218207
1 15.582976 14.242237 9.457834
2 14.618919 12.173580 8.677760
1 14.118054 11.478261 10.382168
1 13.764213 13.312545 12.480579
1 13.983642 12.583308 14.531057
1 13.395336 13.474308 -0.868154
1 15.555044 11.831322 2.625987
2 13.736847 13.801357 5.082933
1 14.921258 13.031461 6.472345
1 16.698594 12.830274 7.579454
2 15.166830 15.444277 8.119638
1 14.200352 16.314943 10.798640
1 14.335856 15.121880 10.675265
1 13.344153 14.658046 13.986810
1 14.894099 13.532138 14.449237
1 10.453012 17.127666 -0.316344
1 15.434553 17.151461 1.080583
1 15.313386 12.974119 3.538650
1 12.538513 16.373645 5.782811
1 15.713731 15.119457 5.291256
1 14.866001 1.867540 9.720602
1 13.789416 0.907312 9.695324
2 12.683515 0.472138 12.035020
2 14.450862 0.161560 11.680285
1 13.232189 1.258470 13.678145
2 16.068517 1.050977 2.396698
1 13.821490 -0.368948 1.306234
1 13.767807 0.998520 5.383623
1 13.792359 0.994866 6.867567
1 12.880636 -0.507233 6.648842
1 12.865714 3.417934 6.330431
2 14.556205 2.689613 7.919681
1 12.810913 1.913907 11.993473
1 15.594470 2.551203 12.291713
1 15.738713 3.516292 13.066536
1 14.311007 0.750466 -1.953068
2 13.757784 4.097287 2.610128
1 13.319882 3.060560 3.813228
2 12.713626 3.235123 5.008765
1 15.346965 3.801678 8.017788
1 14.198744 4.041520 7.552385
2 13.733291 3.573583 9.415806
1 16.995537 3.760785 10.584489
1 14.602255 1.937971 12.770475
1 14.870522 3.755979 13.728790
1 15.906326 3.936872 2.499458
1 14.219567 5.555388 3.232710
1 14.321541 4.512611 3.913282
2 15.253045 4.963844 6.575740
2 12.613883 4.685181 6.640611
1 12.818598 5.862639 9.518234
1 16.080612 5.192587 11.833235
1 13.637434 2.160815 12.638801
2 11.787262 5.894769 11.638753
1 15.258954 5.573850 13.980365
1 14.070214 4.902028 0.384860
1 14.663794 5.432408 5.084647
1 13.899485 7.623623 4.065805
2 13.552118 6.529533 5.566145
1 15.838113 5.748633 7.803537
1 14.378353 7.934716 5.272938
1 14.579219 6.322969 9.584190
2 13.783343 8.482225 9.945386
2 13.365012 6.149273 13.153411
1 14.261315 6.979057 13.908082
1 14.766614 4.686022 1.584186
1 14.935146 5.775194 2.474290
1 15.589011 8.299253 2.796955
2 15.079953 4.913511 7.651216
1 14.197060 5.790863 6.277238
1 1.184107 9.732650 7.891033
2 0.346766 8.759858 9.583957
2 0.917452 9.445233 10.353959
2 0.013076 8.294166 12.065235
2 -0.439907 6.469013 11.685593
1 0.001357 9.720744 1.235635
1 0.565308 9.114138 2.051959
1 0.484179 7.135217 2.101090
1 0.235246 9.399451 5.588637
2 -0.100785 9.358253 6.906984
1 0.018227 11.105041 9.847378
1 3.193998 9.653401 11.764344
1 1.713233 11.123943 11.773704
1 0.791710 8.956237 12.811872
1 3.106028 7.473133 12.111873
1 2.562494 8.678873 -0.176615
1 -0.930426 7.574355 1.736222
2 1.688268 10.353976 4.738215
1 0.129870 8.739325 4.596128
1 -1.433794 9.628122 6.714570
2 -0.664131 9.235830 8.865424
1 1.681153 10.706928 8.647267
2 0.750463 12.385930 12.558555
2 1.589032 10.277951 12.545507
1 0.602182 11.955396 15.136690
2 1.012152 11.157269 1.397858
1 0.869201 9.848672 2.672009
2 2.189333 12.719844 -0.216598
1 -0.077831 12.896723 5.426046
1 0.172367 11.579299 6.077744
1 1.511816 13.736398 9.229543
1 0.100831 12.394057 7.417236
1 -0.944687 10.305959 10.668503
1 0.094975 13.113376 11.078773
1 1.148574 13.012538 15.235704
1 -0.918621 11.604404 -0.970610
2 0.808848 11.955455 3.919076
1 -0.776370 12.876709 4.634633
2 2.360923 12.926349 5.143948
2 1.693963 14.660783 4.969036
1 1.095313 15.003336 7.160208
1 1.133477 14.121349 10.453595
1 0.339084 14.440214 11.252463
1 -0.961395 14.215847 12.849749
1 0.487640 16.235293 14.708422
1 1.029505 14.288883 0.231868
1 1.495382 16.647880 3.371502
1 1.000643 15.302022 3.185968
1 -0.077036 13.985474 5.707086
1 1.489852 13.407497 6.653724
2 0.538605 1.363419 6.910635
1 0.633957 1.298474 13.409029
2 -0.249720 1.307941 11.743677
1 2.850928 1.921326 12.111216
1 2.152531 1.163189 14.141530
1 1.331715 0.505050 1.272958
1 -0.243180 0.506805 2.331732
1 -0.386303 2.363936 3.395232
2 2.979370 -0.100421 4.113598
2 -0.868903 -0.151980 6.600880
1 2.613743 1.761519 8.176022
1 1.005905 3.344792 9.269809
1 -0.070637 0.462052 9.826713
1 1.830621 2.711980 12.698389
1 1.067445 2.395249 13.514079
2 2.049505 2.586970 1.268422
1 -0.606971 2.233074 2.321427
1 0.602959 2.337394 2.445767
1 -1.136954 2.619204 6.039553
2 0.161508 3.459062 6.514475
1 2.352794 4.537011 8.436397
1 -1.633113 1.771400 9.559695
1 -0.101259 4.932873 11.501414
2 -0.305074 2.433883 11.314771
2 1.146642 3.219949 14.358266
2 1.289014 5.262140 0.390949
1 0.747029 4.046348 0.531552
1 1.019054 2.990980 1.498067
1 1.376341 5.189975 5.828877
1 1.597581 4.739493 4.337069
2 0.542779 5.915240 10.078602
1 -2.074113 6.270866 11.712145
1 -0.415461 6.810039 10.577665
1 0.901882 4.240136 13.965378
1 0.590932 5.973621 16.321726
1 1.320400 7.318729 0.957084
2 3.431617 3.127381 1.107965
1 -0.143425 3.741401 3.184124
1 -1.336490 5.329904 5.307895
1 2.491064 6.062944 7.333763
1 0.914868 6.291425 8.696230
2 0.402645 7.410600 10.138768
2 0.191382 8.841341 10.863979
2 0.228982 7.465299 11.407978
1 -0.811263 5.996315 12.621852
1 -0.226975 6.815548 1.368865
2 1.907184 7.824869 2.792595
1 0.060158 6.995418 3.181982
1 1.643518 7.428820 4.479664
1 -0.129828 6.838589 4.618429
2 0.530369 8.789775 8.468820
1 2.596382 7.823088 8.453194
1 1.224063 7.431874 11.722778
1 2.335339 8.840706 11.955490
1 2.904187 8.613386 13.579682
1 1.433153 6.755632 0.086668
2 1.557530 7.190856 1.961009
1 3.892841 8.580302 2.810458
2 2.316333 8.735004 7.685774
1 1.485888 6.497282 6.874688
1 1.934931 10.340123 7.365463
1 2.553490 9.095656 10.072955
1 4.216516 7.603220 10.372212
1 5.033931 11.745419 11.251570
2 0.658935 10.876549 11.596593
1 0.812853 8.177465 1.648406
1 3.234978 9.346353 2.867707
1 2.446938 7.767871 3.979260
1 0.587355 10.799900 3.183476
2 0.652789 10.060787 6.294177
1 4.679105 11.209978 10.218200
1 3.479041 12.565074 10.011526
1 2.209075 11.744037 12.491755
2 2.955620 10.014750 14.195938
1 3.369053 12.181338 15.925902
1 2.110358 9.632346 0.332528
2 3.766476 10.906318 2.020658
1 2.463494 11.328662 6.269134
1 6.499930 12.106194 4.279147
1 2.134300 11.472657 7.670169
1 3.521888 10.841748 7.232065
2 2.417033 12.610814 9.221165
1 1.083914 12.712073 10.199693
1 2.388262 12.217642 13.436109
1 4.453414 13.940509 14.744462
1 0.651083 12.336428 1.362829
1 2.960130 13.797404 1.779685
1 3.272328 11.608596 2.684425
2 4.219627 10.992450 3.222543
1 -0.022731 11.170459 7.129172
1 2.125130 14.461903 10.489819
2 -1.454635 13.922399 7.493225
1 1.757177 15.713410 9.850585
1 2.729966 15.292663 11.212450
1 2.690660 13.227804 13.968738
1 1.140599 14.844749 -1.131290
1 0.672011 13.424041 4.614945
1 2.967051 12.574472 2.514109
1 1.838126 15.899808 5.388291
1 2.786086 13.934112 4.963729
1 1.597308 0.081942 8.163774
1 3.435957 1.746747 10.693281
1 1.483652 0.612783 12.551201
1 0.205715 0.305949 13.586309
1 1.571922 -0.879553 11.392012
1 2.079222 2.219080 -1.351581
1 0.873740 -1.194950 1.258634
1 1.855293 -1.374334 4.115233
1 1.761050 2.205451 4.288535
1 1.334355 0.791312 6.396730
1 0.625406 1.466983 5.373260
2 1.205548 1.495997 10.502960
1 4.343504 1.997780 11.961905
1 3.331760 3.060653 12.707291
2 3.563050 3.547204 14.109279
1 2.735073 1.798578 2.460628
1 2.030564 0.783023 4.318314
2 1.812577 3.497144 4.231468
1 0.707074 1.137668 4.279679
1 1.785911 3.181630 6.890708
2 3.730163 1.599651 7.866242
1 2.611545 2.811488 10.307801
1 3.474284 3.415326 8.929312
1 1.372928 3.038290 11.598127
1 1.575908 2.049484 14.923539
1 4.449946 4.071433 0.086447
1 4.579537 1.254081 2.755064
2 3.406590 1.884721 3.578152
2 3.685090 1.722619 6.128652
1 3.424789 2.477322 5.360524
1 3.125161 5.094963 7.492241
2 2.112474 6.772824 8.858137
1 0.448095 3.686522 11.629087
1 2.165693 4.506532 12.600557
1 2.272434 6.361141 14.367651
1 3.207839 5.606980 -0.010463
2 1.886090 6.368414 1.248404
1 2.456050 3.997960 3.532828
1 3.491382 5.196610 5.029914
1 3.515705 5.079115 6.200140
1 1.223615 7.558139 8.626738
2 1.236489 7.944763 9.807258
1 1.777411 6.974181 10.734261
1 0.677601 6.122552 11.131081
2 1.020016 9.358539 15.391870
2 3.534604 7.302567 0.363294
1 3.883366 8.110254 1.036706
1 2.004504 6.724570 3.113389
1 2.932051 8.046891 2.853874
1 0.173294 5.425006 8.772695
1 4.237878 8.268843 8.610347
1 2.345344 7.656345 9.584632
1 3.108730 7.952944 11.105169
1 3.768053 8.440828 12.648278
1 4.229239 9.712358 12.229952
2 2.229870 9.746219 1.800194
1 5.248103 9.459832 1.822430
1 3.622930 7.045368 2.843691
1 4.371528 7.898010 5.096130
1 4.463847 8.952412 6.353954
1 4.180209 9.426939 8.755046
2 3.415885 9.460678 10.610649
1 3.069175 10.496860 10.489260
1 4.407470 9.205045 11.181126
2 2.413477 9.637307 13.229946
2 3.464426 11.004425 0.838187
1 4.539961 9.751191 3.305861
1 3.485872 8.497121 3.783377
1 3.469125 10.163215 5.457174
1 2.557539 9.761099 6.871874
1 4.600206 12.893695 7.425503
2 3.056023 9.879608 9.524088
1 1.797739 11.557102 9.951041
1 2.906522 13.540105 12.639774
1 1.475036 12.040585 15.661775
1 5.755799 13.351247 2.360247
2 6.586592 11.417670 1.943552
2 4.164142 11.454802 4.956620
2 5.622531 9.997117 4.552424
1 4.111221 10.575645 6.290506
1 5.099878 12.235960 6.045778
1 3.047145 10.964984 9.325542
1 2.347131 13.096646 11.189532
1 5.522816 12.974711 9.073732
1 3.235687 11.065327 14.515359
2 2.990467 14.544620 0.749723
1 4.033826 12.476790 3.045994
1 4.673508 11.987845 1.848375
1 3.959714 9.862485 4.067141
2 4.388712 13.729824 5.517223
2 3.159802 15.673621 8.691749
1 3.857466 14.626985 11.442975
2 1.305821 12.213822 11.383967
2 2.982868 14.219127 11.909431
1 4.010561 13.833419 12.779031
1 4.441693 11.319615 0.321111
1 3.062803 15.726787 0.805757
1 3.737281 12.514518 5.491309
1 3.924509 13.478498 2.166831
1 2.565399 14.641261 6.391016
1 3.193876 0.661430 7.424453
1 3.992973 0.243716 8.065302
2 3.531615 0.505636 12.306707
1 6.313705 0.675031 12.453753
2 5.100657 0.307387 11.858646
2 3.529691 2.153958 -1.554779
1 3.486180 0.482141 2.044173
1 3.045892 1.053051 5.213069
1 4.395132 0.378181 5.426175
1 3.187823 0.700000 6.170128
1 3.088509 3.348322 7.447035
1 4.383849 4.876742 8.340094
1 4.281048 3.070871 11.448259
1 4.345906 3.748366 12.912080
1 3.941363 4.554480 14.033203
2 1.576952 1.822163 1.854554
1 5.552717 0.635393 0.383103
1 4.239485 2.236425 4.716999
1 3.385663 3.585477 4.725328
1 5.922932 1.704148 8.072451
1 5.734228 5.379109 8.209104
1 2.731650 4.344597 9.935996
1 5.631950 3.246918 10.712856
1 3.034013 3.657528 11.586768
1 2.951842 1.849971 14.886500
2 4.944648 5.222054 0.205107
1 2.218319 4.810032 1.914660
1 3.185199 5.077068 2.719834
2 3.828370 3.410325 5.641154
1 5.330444 2.949366 7.628525
2 4.392495 6.320409 7.940348
1 3.154130 5.314899 10.275048
1 5.429032 6.223793 10.758947
1 3.030076 5.485371 11.599174
1 5.329932 2.556224 14.839482
1 4.227817 5.657682 -0.380994
1 3.640086 6.121838 2.121153
1 2.570515 6.948756 0.673941
2 4.376513 4.220067 4.434028
1 3.843109 3.989083 8.232085
2 5.634868 6.711446 7.369371
2 5.413163 7.860957 8.163975
1 1.496945 6.360866 9.838975
2 4.819079 6.053592 13.439190
1 5.784657 6.660253 15.651190
1 3.492166 6.133783 1.104154
1 1.865580 8.267446 0.671982
1 4.775519 5.298861 2.776139
1 2.790039 7.166803 7.359821
1 3.004160 6.823781 8.232454
2 4.302968 7.357610 6.563883
1 5.481107 8.960870 8.486901
1 4.013013 8.592458 10.150162
1 5.291287 5.890712 12.032143
1 5.149424 8.586283 13.801555
1 5.127390 7.996179 0.965204
1 4.960122 8.648795 2.930998
2 6.094202 8.572720 2.589622
1 4.562702 8.182240 7.318460
1 6.218755 8.434299 7.513290
1 5.125502 10.349467 5.360913
1 4.459513 9.745423 9.961280
2 4.259722 10.411392 10.839749
1 5.141307 11.016477 12.160263
2 5.849560 8.767322 14.631474
1 3.113601 9.997981 1.226090
2 4.269106 9.970682 2.370457
1 4.471237 9.507479 5.069641
2 2.849173 9.523999 4.030207
1 6.998908 10.065661 7.164614
2 3.889062 9.095800 7.158384
1 5.902359 11.579399 9.770751
1 5.603709 10.713862 11.022843
2 3.291474 11.167842 12.353896
2 6.561790 12.196257 14.198177
2 6.704131 11.577579 0.770487
2 5.722557 9.575738 3.618711
2 5.891707 10.214987 0.778543
1 5.813403 11.617731 6.266572
1 7.009576 11.240280 6.937860
2 5.889714 12.907472 6.318353
1 4.522759 12.352815 10.212149
1 4.821886 12.809125 12.430143
2 5.989425 12.657161 12.314651
1 6.219531 11.586255 13.198602
1 5.716988 11.534019 0.080089
1 4.999729 13.142043 1.577417
1 6.188369 10.865162 4.623625
2 6.713148 12.246405 6.584905
1 5.821149 12.886200 7.820454
1 4.856765 13.796417 7.206650
1 6.373421 14.802885 9.072848
1 2.821505 12.160563 11.541007
2 5.556771 14.700399 13.314372
1 5.890051 14.720234 14.602139
1 5.853527 12.903413 0.859613
1 4.801725 14.936780 1.844447
1 4.124119 15.954322 1.108530
1 4.798323 14.563447 4.677769
1 4.861053 13.286326 6.273283
2 6.485079 0.641341 7.579532
1 6.930203 0.479670 9.900538
1 6.600708 -1.285011 12.180527
1 7.006373 -0.279854 11.701856
1 5.296046 0.949587 12.641469
1 5.479952 0.844945 -1.191813
1 4.815260 1.260684 4.578178
1 3.784999 0.583585 3.317951
2 5.303161 2.589063 6.174265
1 6.522535 -0.452586 4.679509
1 6.153458 1.608128 9.282376
1 6.607121 3.095567 8.236632
2 5.508686 0.672335 9.601040
1 6.689598 3.563078 12.463437
2 4.660643 3.086500 13.952250
1 6.056852 0.182571 1.646996
1 3.876920 1.945680 1.896850
1 4.884331 2.395599 3.878266
1 4.606124 1.527983 5.483944
1 2.794035 2.251852 6.824850
1 5.102064 3.809322 8.258178
1 3.709243 3.410468 10.261252
2 3.871706 4.626181 12.252874
1 7.026192 4.410579 14.212774
1 3.950743 3.021061 15.052559
1 3.708958 2.076630 0.753744
1 3.396788 2.875487 2.717512
1 6.401247 2.279049 6.129555
1 4.956634 3.351016 5.214847
1 4.311121 4.559918 5.661416
1 3.954126 5.672068 9.238675
1 4.105285 4.570164 11.152972
1 6.119964 4.555785 12.824324
1 3.308950 4.041671 12.757032
1 5.934512 5.629675 14.588943
1 4.125506 5.040634 1.509283
1 4.992675 5.948987 1.945819
1 4.227848 6.434490 5.062041
1 5.327266 5.890471 3.823180
2 4.437312 5.889212 6.807017
1 3.432319 7.982168 8.030936
1 5.402579 7.468788 10.904758
1 6.262686 9.082902 10.761451
1 5.080338 7.135333 15.042501
1 6.897947 5.828523 14.999908
1 4.742078 6.941003 1.064229
1 4.421107 6.334568 3.393630
1 4.513228 7.691996 2.766683
1 5.104655 8.489555 4.357953
1 6.502556 5.912462 7.678578
1 8.573259 8.157593 10.554785
1 8.198702 7.942477 9.220678
1 6.560948 6.045773 11.712336
1 5.587186 6.977596 13.789411
1 6.897540 10.553280 16.396176
1 6.116583 5.430089 2.327568
1 8.658392 5.636750 2.940541
1 6.195967 7.271182 5.142292
1 5.346431 8.119231 6.378357
2 7.494408 7.707065 6.508429
1 7.333946 10.788038 8.006764
1 7.058592 8.283090 9.295071
1 6.548053 9.138266 12.301522
1 5.321364 9.652464 10.655049
1 5.801259 10.800808 14.300808
2 7.039025 7.276036 1.840143
1 7.177967 8.260752 1.360167
1 6.589166 9.334341 4.708257
1 6.797799 10.884499 5.886211
2 7.935241 10.863662 6.386998
2 5.683731 9.835388 6.999499
1 5.249713 10.546111 8.921555
1 5.780602 10.219854 9.799714
1 7.392811 11.653649 13.740754
2 6.557818 14.243872 13.379365
1 5.817500 8.891501 0.961446
1 7.790112 13.680610 0.861305
2 7.208696 13.838773 3.225495
1 8.238118 10.265789 7.501808
1 4.793262 10.980877 7.083563
1 7.615333 13.735215 6.576146
1 9.050714 12.971469 10.708581
2 8.781184 10.296309 11.217454
1 6.256453 12.961675 13.650410
1 4.076194 14.880138 13.172258
2 5.992358 13.566536 -0.503979
2 7.174276 12.458600 2.387220
2 8.088064 12.521126 5.245388
1 7.203957 11.632760 4.815340
1 8.206184 12.195581 6.939520
1 7.177471 14.129719 9.371582
1 6.761319 13.570360 11.034109
1 4.779683 15.333298 10.330575
1 7.719316 13.713951 11.935916
1 7.773286 12.927411 13.972537
1 6.412301 14.753322 0.735613
2 6.494195 14.045489 1.936508
2 7.531366 14.178795 2.123488
1 6.423224 13.833048 6.150370
1 6.081010 14.180242 8.048175
2 7.202970 1.108313 8.358047
1 7.068635 -0.260196 10.617384
1 8.420461 -0.168502 11.429437
1 6.332141 2.110901 12.754771
1 7.371305 0.493947 15.715100
1 5.599296 1.805037 0.801373
1 9.184989 0.137418 1.879300
1 6.808767 1.032942 4.659136
1 6.733714 1.137300 5.764049
1 5.869590 -0.374580 6.837537
1 4.773756 0.761635 7.348904
2 6.343707 2.521399 7.112847
1 6.583635 4.196041 10.285990
1 5.107403 1.951728 13.227894
1 5.751997 2.885735 15.710241
1 6.549175 2.208894 0.833927
1 5.931026 1.518667 2.382975
2 6.572540 2.645078 4.318846
1 6.434317 3.159041 5.330672
1 7.308432 2.603973 6.755966
1 7.737962 4.873490 7.297747
1 7.708386 4.039281 10.274776
1 6.410029 4.104117 11.459549
1 7.242364 4.523325 12.091818
1 8.610538 3.069708 14.644915
1 6.678720 4.706611 0.743833
1 8.349684 3.460044 0.710520
1 4.013572 2.919313 3.555374
1 8.042867 5.170464 4.093467
1 6.381715 5.075123 4.712664
1 7.331180 7.120579 10.023143
2 6.085726 3.712393 9.078457
2 8.143316 7.922238 11.611082
2 8.145127 3.982549 12.797077
1 6.128284 5.915783 13.294989
1 5.602575 4.603085 1.210402
1 6.808316 4.082150 2.366878
1 6.545167 5.997608 1.608330
1 6.520781 5.443623 5.776029
1 7.261019 4.861290 5.216102
2 7.710958 8.215749 8.275254
1 4.621678 6.717212 9.214161