1000
Lattice="10.772173450159416 0.0 0.0 0.0 10.772173450159416 0.0 0.0 0.0 10.772173450159416" Properties=:species:S:1:pos:R:3 Time=1000
1 6.633808 4.835780 5.982189
1 5.845125 5.416723 7.104805
2 5.836220 5.289346 8.387772
1 5.148785 5.971304 9.158110
1 5.856765 5.890190 10.089007
1 6.114688 5.509676 0.198655
1 5.416507 5.512074 1.346847
1 5.597705 6.069753 2.427523
1 5.686942 6.227102 3.629155
1 5.848523 5.494198 4.658048
1 5.984064 7.402514 5.921413
1 6.339802 7.480774 7.010744
2 5.212420 7.105135 8.017550
1 5.776893 7.296396 8.842467
2 5.752351 7.111211 9.901700
2 5.895962 6.570169 0.091923
2 5.130096 7.464176 1.128836
1 5.707117 7.488949 2.981415
1 6.252388 7.299634 3.984635
2 6.517927 7.811009 4.847216
2 5.061983 8.077372 6.470572
1 6.184359 8.291169 6.220523
1 6.326734 7.836598 7.945843
1 6.034384 8.260331 9.141714
2 6.494124 8.228304 10.131133
1 6.368655 8.428035 0.517738
1 6.239450 7.286793 1.931849
1 6.397371 8.186986 2.568818
1 6.070821 8.346035 3.766999
2 5.982486 8.633569 5.218030
2 6.199230 9.403586 6.037451
1 6.275081 8.678018 7.166536
1 7.016799 8.744888 8.301886
1 6.261062 9.437379 8.808179
2 6.975671 9.274333 10.667969
1 5.203555 9.070646 -0.024546
1 5.165832 9.278815 1.255338
1 6.387829 9.102914 1.945351
1 6.333437 9.050510 3.057061
2 6.361011 9.180129 4.398247
1 6.413631 10.727232 6.096182
1 5.631503 10.689843 7.043809
1 5.693428 9.818791 8.027986
1 5.490970 10.936991 9.999087
2 5.802015 9.177744 9.845864
1 5.964849 9.409284 0.644678
1 5.948452 10.129706 1.394298
1 6.252584 9.963352 2.679544
1 4.657229 10.207212 3.709449
2 5.817917 9.828483 5.185797
1 6.553375 0.201230 5.114097
2 6.637237 0.925283 6.841566
1 6.139190 0.475844 7.715142
1 6.232145 1.815712 8.869622
1 6.462838 0.220135 10.239608
1 5.767096 0.199596 0.279755
1 6.013496 0.149452 2.285767
2 5.649269 0.907489 3.038741
1 5.634109 -0.237789 3.404438
2 5.467348 0.896514 5.109766
2 6.981680 1.346995 5.775262
1 5.603900 2.894408 7.363649
1 5.296320 1.039636 8.393112
1 6.903534 2.081079 9.610262
1 6.120364 1.105975 9.750282
1 6.095151 1.287752 0.241807
1 6.215724 1.520606 1.380509
1 5.748929 1.800207 2.560879
1 4.896062 0.977756 3.749362
1 5.338045 2.004227 5.114558
2 5.179939 2.168574 6.661704
1 4.426658 2.999595 6.494951
1 5.570023 1.990383 7.969158
1 4.798708 4.187529 8.495231
1 6.523260 3.017105 9.967803
1 5.112590 2.799779 0.596469
1 4.529551 3.410397 1.381491
1 5.250283 2.401941 1.638162
2 5.760659 1.725182 4.259751
2 5.576203 2.879829 4.471813
2 5.441058 3.279876 6.229814
1 4.828066 3.703443 7.204157
1 6.276933 3.646860 7.610178
1 5.670577 2.743744 9.017749
2 6.960516 3.927737 10.513214
1 5.094345 3.906053 0.578976
1 5.461456 3.774254 1.737979
1 5.526902 4.049976 2.785885
2 6.307894 3.275199 2.829662
1 6.346180 3.480701 4.030572
1 6.274830 3.258308 5.160350
1 6.011455 4.224397 6.728075
1 6.573543 4.784803 7.587759
1 4.516907 5.177689 8.622685
2 5.564217 4.639434 9.282933
2 5.908258 3.945116 -0.353996
1 5.968268 4.964126 1.912371
1 6.014299 5.398938 3.053493
1 6.349725 4.515350 3.808417
1 5.993293 4.290864 4.806664
1 6.292431 5.781041 5.707435
1 5.887309 6.449479 7.454492
1 6.849725 5.827769 7.672567
1 6.451526 6.006607 9.286017
2 6.962105 6.023577 10.371701
1 6.914528 6.428216 0.679070
2 6.944323 6.128440 2.185972
2 8.097997 5.458670 1.662275
1 7.177281 6.217853 3.509527
2 7.462418 6.010843 4.601882
1 7.607418 6.417944 5.647104
1 6.985502 6.599748 6.776229
1 7.104723 6.874478 7.905979
1 6.799262 7.177616 9.255501
2 7.793012 7.143274 9.802537
2 6.664346 7.456339 0.951520
2 5.894235 6.412415 1.183476
1 6.463455 6.805006 2.866574
1 7.254651 7.008610 4.022801
1 5.185632 6.360601 5.309689
1 7.074690 7.327219 5.832170
1 7.150534 8.176221 7.401080
1 7.281760 7.770235 8.313160
1 7.336744 8.079108 9.242089
1 6.667221 7.270282 10.631647
1 7.363133 8.310455 0.581611
1 6.755981 8.203510 1.576868
1 7.283564 7.427518 2.319939
1 7.011785 7.867800 3.258623
1 7.495871 8.443570 5.323729
1 7.358524 8.275319 6.295234
1 7.146868 9.303015 6.737638
1 7.801566 8.897394 7.497364
2 8.248075 8.655957 8.774226
2 6.843621 9.065177 9.573999
1 7.153305 9.257851 1.210883
1 6.924212 10.013349 1.732462
1 7.098391 8.472683 4.147731
2 7.373443 9.551136 4.089433
2 7.135027 9.402113 5.430644
2 7.823374 10.253189 5.612278
1 6.695539 10.239261 7.030899
1 6.966193 10.720365 8.229344
1 6.758184 10.123408 9.196625
2 6.126951 10.084463 10.581810
1 6.806353 10.263924 0.596105
2 6.939195 11.072169 1.777032
2 7.369575 9.991036 2.992613
2 6.515618 10.398112 4.047210
1 7.530227 10.471081 4.637242
1 7.424676 0.383385 6.250999
2 7.353317 0.248826 7.312087
1 6.958466 1.247745 7.879629
2 6.360921 0.741657 8.667159
1 7.147904 0.388968 9.284517
1 7.560173 0.368567 0.926765
2 7.016057 1.316167 0.841079
1 6.761431 0.274181 3.153399
1 5.933793 0.637283 4.044951
1 6.532185 1.062617 4.702853
1 6.575262 2.351154 4.557548
2 6.216448 1.868899 7.083804
2 6.532029 2.494084 7.999753
1 7.496509 1.576430 8.932803
1 6.971325 1.420962 10.451021
2 7.826742 2.122173 -0.392116
1 7.074306 3.045704 1.252277
1 6.750508 1.137176 2.670371
1 7.572107 1.236673 3.545817
1 6.716695 1.552289 3.852778
1 7.233472 3.181391 4.637060
2 6.218646 2.193609 5.623668
1 7.319143 2.777392 7.299557
1 6.926593 3.493160 8.407422
1 7.843144 3.055015 10.671269
1 6.253948 2.519354 0.527141
1 6.621798 3.977022 1.709593
1 6.883754 2.099671 2.889679
2 7.646470 3.776541 1.876624
1 5.979871 2.488783 3.451014
2 7.153930 3.588142 6.013294
2 6.512951 3.154242 6.738981
1 7.334978 3.976288 7.020146
1 7.544734 4.383403 8.276602
1 6.263306 3.848521 9.371038
2 7.479744 4.986855 -0.160252
2 5.879002 4.646740 0.694042
1 6.556449 4.362766 2.679973
1 7.355583 3.035762 2.974603
1 7.948961 4.071401 5.517124
1 7.607813 4.593785 6.234584
1 7.573669 5.304910 7.181896
1 7.521114 5.400760 8.468871
1 6.724632 4.696981 8.726455
1 6.496671 5.047777 10.102638
1 6.592668 5.498171 1.276438
2 7.202834 4.898035 1.772920
1 7.132644 5.137443 2.894307
1 7.317008 5.163770 3.981043
1 7.045654 4.456758 5.042674
2 7.441673 5.356308 5.560731
1 6.709871 5.588851 6.676029
1 7.893745 6.281847 8.084423
1 7.385362 6.345373 9.040024
1 7.907329 6.024377 9.848956
1 9.594021 6.695092 0.316730
1 8.198201 4.469786 1.351396
1 9.051033 5.348737 2.278258
1 8.101905 6.451815 3.700669
2 8.559864 6.780428 5.117100
2 8.109382 7.543520 5.891578
2 7.998515 6.341007 7.045485
1 6.348306 6.558100 8.485888
2 8.005658 7.189958 8.539316
1 8.627751 6.626255 9.325816
2 7.938762 6.897451 0.164581
1 7.800250 6.471929 1.632387
1 8.146875 6.993286 2.790761
1 8.092276 7.690451 3.492987
1 6.348663 6.370314 4.572839
1 8.391029 8.375646 6.888978
1 7.761090 7.450835 6.957366
1 8.734205 7.116775 7.025880
1 8.640068 7.672638 9.173605
1 8.619104 7.553718 10.492614
2 7.809590 7.470839 1.168709
2 8.522071 7.815498 2.273464
1 8.084966 8.629911 4.483920
1 7.716678 7.613307 4.577645
1 8.051651 9.596579 4.817764
2 8.149324 9.103345 6.027810
1 9.017583 9.466357 7.044428
1 8.227084 7.899635 7.800107
1 7.895786 9.834468 7.803771
2 7.854227 10.115634 8.989444
1 7.642893 8.454080 -0.477057
1 8.043109 9.285477 0.466887
2 7.331406 8.660931 2.390534
2 8.054438 8.991485 3.230986
1 8.564188 9.542734 4.004416
1 9.146979 11.110596 5.580838
1 7.829232 10.135532 6.862460
2 7.976499 11.468221 8.538442
1 8.719964 10.553374 9.875886
2 7.668088 10.737001 10.312566
1 8.248393 10.377598 0.408754
1 7.794033 9.523048 1.967002
2 8.549916 10.043625 2.839253
1 7.129986 11.290553 4.044862
2 8.657860 10.413240 4.797937
1 8.507200 1.752023 6.097834
1 8.338571 0.560822 6.636622
1 8.549584 1.030937 7.606012
2 8.169911 1.104180 9.609393
1 7.953964 -1.024567 10.018483
1 7.798550 1.060582 1.846955
2 8.122159 -0.202881 1.658059
1 7.859821 0.177101 2.669580
1 7.992160 -0.147421 3.733822
1 8.102447 0.564495 5.542381
1 8.472424 2.105993 7.012548
1 7.591645 1.326329 6.879245
1 7.617221 2.650152 8.503744
1 8.017673 2.237690 9.346954
1 7.933176 0.928729 10.691379
1 9.027334 0.927748 -0.274976
2 9.192028 1.266857 2.014436
1 8.368845 1.158386 2.824078
1 8.508017 1.561663 3.832274
2 7.812954 1.406688 4.970380
1 7.708021 2.703341 5.565183
2 7.293891 2.186937 6.374508
2 8.235750 3.679076 8.738733
1 7.752216 3.182929 9.705952
1 8.859638 2.567355 10.973390
2 8.261615 1.989297 0.846646
1 7.808145 2.697808 1.946380
1 7.922668 2.117571 2.936443
1 7.210831 4.051228 4.005931
2 7.596134 2.343505 4.154490
1 9.327517 3.615778 6.041244
2 8.212925 3.169334 6.463849
1 8.329799 3.192586 7.699405
1 9.036908 4.077145 8.125253
1 8.015658 4.009644 10.265777
1 7.427840 4.452731 0.821000
1 6.075082 3.526656 0.697941
1 8.067082 3.594577 0.777750
1 8.361769 4.355917 3.468494
1 8.260429 3.252956 4.970803
1 8.757046 4.460896 5.898194
1 8.312998 4.264333 6.731674
1 8.340259 4.781015 7.823741
2 8.193653 4.706449 9.198347
1 7.336448 4.238953 9.385537
1 7.480243 5.490795 0.683400
2 8.102330 4.711046 2.440094
1 7.479602 4.099122 2.988678
1 8.671571 5.274791 3.313488
2 8.021435 4.599083 4.597615
1 8.497045 5.348503 5.428071
2 8.858506 6.272302 7.842295
2 8.724124 5.647161 8.990123
1 9.602095 6.370684 9.191211
1 8.767435 6.054492 10.356078
1 11.129146 4.622558 0.129996
1 8.647948 6.688677 1.006800
1 8.872263 6.192088 1.867196
1 7.994722 5.973244 2.605725
2 8.736241 5.875770 4.475968
1 8.531480 6.496533 6.138305
1 9.407686 6.287141 6.973643
1 9.183541 7.106355 8.404867
1 9.378916 8.075889 9.953379
1 9.374266 7.738469 11.302436
1 9.230439 7.345621 1.592924
1 9.212529 6.811956 2.559668
1 9.151253 6.274282 3.480968
1 8.741287 7.082123 4.045257
1 9.888561 7.825220 5.625108
1 9.246096 8.623310 5.941641
1 9.602726 7.704469 6.927356
1 9.299395 8.091651 8.177927
1 9.373066 8.618497 9.138230
2 8.439230 8.918905 10.025436
1 10.261923 7.618928 1.092137
2 10.082295 7.518256 2.257181
2 9.464020 8.223368 2.814438
1 8.886432 8.134306 3.819628
1 8.813918 8.223980 5.155050
1 10.238736 8.788705 5.187806
1 9.905014 9.782015 5.954206
1 8.744985 9.006819 7.852098
1 9.822806 9.423199 9.763484
1 8.445701 8.328113 11.137966
1 9.317771 8.388554 1.633661
2 7.940558 8.533346 1.415613
1 8.547332 8.901654 2.305946
1 9.616115 9.437681 3.516172
1 10.754726 9.717456 5.571308
1 8.957459 9.368053 5.332852
2 8.763825 10.339861 6.343693
1 8.955424 9.725950 9.246678
1 9.666139 10.395577 9.020748
1 9.034466 9.796193 10.468341
1 8.769856 9.329154 1.230950
1 9.289218 9.624073 2.149026
1 9.939676 10.363788 2.854484
2 9.144517 10.505773 3.691840
1 9.630564 9.368622 4.562250
1 10.091185 0.878041 5.582791
1 9.601923 0.832064 7.368830
1 8.845869 -0.722143 8.172325
1 8.847606 0.111496 8.764490
1 9.512612 0.281231 11.011577
2 9.152929 -0.298109 1.199039
2 8.671727 0.839209 1.166830
2 9.176626 0.066428 2.275995
1 9.448970 1.044803 3.533922
1 8.492595 0.721353 4.502126
2 9.046598 1.253720 5.178154
2 9.430194 1.210948 6.389073
1 8.844369 -0.027017 7.569634
1 9.491127 2.227549 8.896434
1 8.842956 2.578272 9.952852
2 9.915352 1.928097 -0.537452
1 9.304142 1.919950 1.022438
1 10.267302 0.832097 2.593950
1 10.065960 2.822867 3.943830
1 9.731971 1.458451 4.376320
1 9.463293 2.239085 6.015969
1 8.017162 1.977061 7.905313
2 8.587653 1.629719 8.742201
1 8.608873 2.709143 8.732188
1 9.677059 3.031738 10.156270
1 9.692819 3.004054 0.640846
2 8.820463 3.001733 1.375616
1 8.303628 3.515068 2.670839
1 8.979350 2.546930 3.663996
1 8.609565 2.142419 4.742710
2 9.804053 4.404815 5.509442
1 9.457287 2.841681 6.972001
2 9.516112 3.150388 8.032577
2 8.869400 3.587028 9.620977
1 8.829818 3.642288 10.719207
2 9.704732 5.246183 0.186179
1 9.052118 4.038953 1.649334
2 10.080711 3.360797 1.557015
1 8.102343 3.274642 3.841431
1 9.270401 3.117391 5.116171
1 9.531679 5.240136 6.248660
1 8.640699 5.357803 6.825425
1 9.444948 5.010290 8.705154
1 8.509308 4.653532 11.084182
1 8.647252 5.666224 11.325002
2 9.054565 5.099991 1.278922
1 9.976985 4.522369 1.755603
1 9.210141 4.425626 2.777761
1 9.683362 4.636111 4.398680
1 8.886060 4.029822 4.699196
1 9.440339 6.724143 5.889440
1 10.328466 6.209239 6.516940
1 10.004158 6.379996 8.218191
2 9.212204 4.971254 9.885812
1 9.716766 5.972037 10.155325
1 10.514757 6.118970 0.187096
1 9.634835 5.970223 1.063849
1 10.847485 5.607927 3.431584
1 9.984018 5.428397 2.917227
1 10.316121 5.234683 5.191044
1 10.282863 7.133242 6.351659
1 10.221834 6.940484 7.397949
1 10.240693 7.560737 8.241467
1 10.662398 6.628982 8.976406
1 9.328196 6.957823 10.000906
1 10.403430 7.443299 -0.072124
1 10.629057 6.645100 1.037576
1 10.393259 6.622146 3.074676
1 9.568124 7.301993 3.318279
1 9.448442 7.237388 4.916080
1 10.849593 7.945167 5.608464
1 10.781277 7.784152 6.884074
1 11.293282 7.944753 7.774134
1 9.872295 7.542663 9.226417
2 10.365859 8.516366 10.355414
2 11.125962 8.786747 1.061934
1 11.350858 8.589015 2.782395
1 10.438011 7.712671 3.573922
1 10.288792 8.752057 3.926075
1 9.918586 7.962785 4.392481
2 10.258252 8.807734 6.455976
1 10.288854 8.892338 7.792630
1 9.646534 9.324552 8.460784
1 10.438309 8.678813 9.216027
1 9.255098 8.750443 10.712213
1 9.911132 9.497550 1.505372
1 10.317561 8.436676 1.814238
1 10.524970 10.226196 4.186611
2 11.036432 9.208836 4.482024
1 11.284350 8.888194 5.766215
1 9.789426 10.648140 6.666085
1 10.212656 9.803853 7.380311
1 9.864531 10.773395 7.864477
1 10.539889 9.657481 8.954671
2 9.981900 10.051021 11.335897
1 10.536704 10.969744 -0.084409
1 10.293309 10.599680 1.531449
1 10.089722 9.107200 2.620059
1 10.369575 11.432973 4.153541
1 9.712303 10.246878 5.024416
1 11.342699 0.590031 5.705980
1 10.873863 0.856566 6.742371
1 9.265209 1.025953 8.267648
2 9.977283 1.082664 8.984563
1 9.750437 -0.278191 10.137291
2 10.045736 1.027094 0.633566
2 11.257198 1.172915 -0.022234
2 10.859196 -0.081017 3.106378
1 10.546009 1.391792 3.432675
1 9.470015 0.277509 4.583737
2 10.455391 1.637138 6.102306
1 10.702700 1.843428 7.176980
2 10.782689 1.823806 8.289329
2 11.635711 1.645049 9.345914
1 9.391458 0.585123 9.599789
2 10.518663 2.015567 0.362127
1 9.909796 0.691276 1.589185
1 9.994014 2.549483 2.786089
2 11.002527 2.587212 3.468186
1 10.555479 1.513848 5.047399
1 10.265847 3.075967 5.340289
2 9.282030 2.001124 7.793974
1 10.451875 2.876741 8.285356
1 10.494575 2.323997 9.311675
1 10.610738 2.650198 10.299601
2 10.244431 2.288931 1.661318
1 8.984480 2.149121 2.630447
1 9.310156 3.185631 2.310445
1 10.754549 3.592336 4.504772
1 9.747355 2.239690 4.876446
2 9.523690 4.264571 7.022237
1 10.291825 3.546662 7.408381
1 10.158428 4.230007 8.148196
1 9.735753 3.768831 8.996605
2 10.659965 3.865097 9.677066
1 10.855166 2.849687 0.897241
1 10.184685 3.546429 2.794798
1 10.682702 4.541976 2.520033
1 9.380721 3.674946 3.832106
2 10.810845 4.212754 5.370159
2 10.896302 5.211575 6.190158
1 9.417895 5.208346 7.793314
1 10.636438 5.639925 7.674444
2 9.847562 4.218107 10.283574
1 10.484590 5.114223 10.252154
1 10.603380 3.806483 0.535377
1 10.969996 3.713017 1.777349
2 10.062635 6.341574 1.990493
1 10.777370 4.764382 4.375257
2 10.111439 4.511829 3.418728
2 -0.912515 6.283964 4.942651
1 0.561904 6.045815 6.656147
1 0.344998 6.420665 8.150589
2 0.985736 5.365606 8.091966
1 -0.338193 5.717376 8.931914
2 0.724077 5.977070 -0.349864
1 0.335035 5.743422 1.706266
1 0.646454 5.262609 2.558395
2 -0.827620 5.556897 4.013878
2 0.255721 6.477178 4.227531
1 0.571356 7.183238 6.093593
1 1.152112 7.093564 7.993648
1 0.644233 6.031225 9.390440
1 -0.002284 7.654668 9.585348
1 -0.195143 6.595856 9.981878
1 0.818446 6.817075 1.536449
1 0.262390 6.518875 2.343788
1 0.534631 7.583397 2.944706
1 -0.740250 6.878807 4.071399
1 -0.145556 6.987600 5.249582
1 1.010095 7.918706 6.641736
1 0.541447 6.918650 7.223971
1 1.338870 8.036877 8.347907
1 0.573521 8.419314 8.810682
2 0.595542 8.030283 10.998707
2 0.716020 6.966283 0.132781
2 0.435280 7.888143 1.845766
2 1.664537 8.736147 1.403854
2 0.123295 7.905425 4.592258
1 0.562649 8.544463 3.892742
2 1.255430 10.185185 5.721878
1 0.354706 8.831923 7.013292
1 0.537393 9.209749 8.282724
1 0.714086 9.401603 9.288127
1 0.343394 9.171305 10.618443
1 -0.839845 8.720435 0.840768
1 0.578356 9.701728 2.560286
1 0.002579 9.575976 3.425786
1 1.466332 8.540456 3.159643
1 1.592369 9.823638 3.664308
1 0.369598 9.826220 6.438694
1 -0.029857 10.704449 7.352722
1 -0.044578 10.564441 8.494765
1 -0.338312 10.972415 9.533505
1 -0.028481 10.040333 10.109893
1 0.350559 9.858020 0.619735
2 0.187641 11.272175 0.885587
1 0.402102 10.536074 1.961333
1 0.719909 10.130262 3.930002
1 0.565479 10.283706 4.895907
1 1.605378 0.577738 5.761945
1 0.787242 0.582832 7.512227
1 -0.200661 0.851410 7.826228
1 0.791570 2.116430 10.244546
2 0.864398 0.141710 10.922625
1 1.216765 1.047241 0.959783
1 0.565156 0.674849 1.819414
1 0.434058 0.909152 2.859040
1 0.609340 0.434869 3.817754
1 -0.303232 0.028760 4.931990
1 0.745536 2.168109 5.710697
2 0.878499 1.337198 6.360688
1 0.830025 1.610096 7.588839
1 1.478610 1.310549 8.539673
1 -0.189467 1.086762 9.939145
1 0.922379 2.099962 0.657409
1 0.258288 1.556769 1.169237
1 1.689195 1.153504 2.044427
1 0.719816 1.558520 2.205949
1 0.408536 1.600194 4.154131
1 0.903946 2.355969 6.725474
1 -0.457865 2.707151 6.541690
1 0.355685 2.982575 7.467566
1 0.734092 2.509478 8.447171
1 0.576350 3.036601 9.673445
1 1.278430 3.250173 0.871767
1 0.907429 2.418797 1.614010
1 0.192884 2.838314 2.175020
1 1.229554 3.175464 3.867273
1 0.278272 2.615383 4.571670
1 -0.320082 4.290989 6.357611
2 1.333356 4.487879 7.678809
1 0.308861 4.098034 7.436073
2 0.329755 3.586409 8.625276
2 0.641008 3.351946 10.759940
1 1.010650 4.235406 0.744934
1 1.228451 3.523477 2.074187
1 0.724410 4.067867 2.913828
1 0.905155 3.524765 4.825969
2 0.571887 3.188764 5.874840
1 0.719612 4.151376 6.334761
1 -0.541725 4.951623 7.145271
1 0.123910 4.953036 8.281563
1 -0.475016 4.723844 9.222339
2 0.424521 4.993857 9.411039
1 -1.178788 4.036234 0.653334
1 0.561940 5.428586 0.697713
1 0.443817 4.738752 1.424114
1 1.014701 5.840705 3.957700
1 0.621137 5.273736 5.073764
1 0.403219 6.208086 5.628942
1 1.711136 5.428723 6.205972
1 1.343502 7.049488 9.039472
1 2.620880 5.781688 8.963238
1 1.632151 6.187670 9.958549
1 2.349491 6.070614 1.132972
1 1.369360 5.824388 1.541394
1 1.669884 5.588953 2.645585
1 1.061033 7.339868 3.864352
1 1.376801 6.382668 5.421984
2 1.770443 6.664172 6.402628
1 2.235634 8.605601 7.477381
1 2.011458 7.455745 7.615860
1 1.946750 8.093600 9.520242
1 1.055499 7.548749 10.023204
1 1.685056 6.842790 0.973184
1 2.259303 6.769218 1.917690
2 1.331925 7.025474 2.651149
2 1.983304 7.586836 4.278855
1 0.911712 7.157712 4.809128
1 1.923799 8.202987 6.522688
1 1.351933 9.596011 6.741824
1 2.098793 8.871021 8.474342
2 1.095200 8.718967 10.050302
1 1.631465 7.898506 11.197422
2 2.622440 7.621778 0.420240
1 1.275911 7.762738 1.248574
1 1.779356 6.544178 3.889432
1 2.941100 8.315481 4.347670
1 1.020983 8.293027 4.889450
2 1.667755 9.187625 5.613637
1 1.968981 9.709391 7.517195
1 1.324099 8.897701 7.834786
1 2.093867 9.983004 9.201968
2 2.479754 10.063585 10.171292
1 1.343124 9.009620 0.436835
1 1.732295 9.797957 0.784701
1 1.519476 9.448815 2.600977
1 2.491949 8.814901 3.408429
1 1.365956 9.607742 4.675875
1 2.376424 9.696505 6.424395
1 0.992189 10.735948 6.503375
2 0.735004 9.974734 7.509807
1 0.977562 10.670254 8.487821
1 1.670497 10.697134 10.248457
1 1.168287 9.764833 -0.311557
2 0.874712 9.606502 1.436741
1 1.284696 10.575617 2.943410
2 1.431908 10.753871 4.717795
1 3.272761 9.767799 5.036972
1 2.429697 0.195448 6.375749
2 1.908093 1.382577 6.691067
2 0.511387 0.804455 8.523118
1 1.719630 0.856719 9.411286
1 0.885030 0.260414 9.521811
1 1.466067 1.191296 -0.315936
1 1.392776 0.041450 1.884888
1 1.580462 0.878477 3.045943
2 1.699590 1.255904 4.001495
2 2.452122 -0.439783 5.438774
1 0.848110 0.845615 4.765308
1 1.682698 2.239127 7.592679
1 1.852501 0.975326 7.663196
1 1.879971 1.936088 9.876293
2 2.243433 2.186182 10.991621
1 1.670983 1.850353 1.235886
1 2.185665 1.195877 0.764746
1 2.614742 1.304406 1.691600
1 1.218430 1.936423 3.262632
1 2.481768 1.713594 4.565464
2 1.658027 1.562825 5.413098
1 1.450245 3.290340 7.293889
1 2.674828 1.735914 7.619259
1 1.645531 2.572334 9.141836
1 1.017678 4.125918 9.994800
2 2.855380 3.161840 0.274299
1 1.868536 2.897771 1.547469
1 1.733872 2.172820 2.330166
1 2.026515 3.054179 2.964957
2 1.296951 2.271799 4.505914
1 2.447686 3.185368 5.662981
2 1.854914 3.802591 6.296481
1 1.427766 3.396316 8.367442
1 2.285319 4.054168 8.583196
2 1.612058 5.269491 9.324196
1 1.836983 3.837074 0.125438
1 1.977580 3.900219 1.291739
1 1.030674 2.769358 2.782632
1 1.258882 4.955284 3.584893
1 1.518766 2.863104 5.382817
2 1.242364 4.524520 5.527205
1 3.334519 4.538839 7.042035
1 0.560592 4.966471 7.072392
2 1.152514 4.344866 8.811787
1 1.439375 5.942389 11.255484
2 1.395416 5.078618 -0.256591
1 2.242751 5.231849 1.695284
2 2.089198 5.560604 3.647670
1 1.515824 4.254087 4.320795
2 1.685047 5.417284 4.954640
2 2.691246 5.171247 5.361063
2 1.339602 6.157088 7.288054
1 2.719471 5.682960 7.376960
1 3.623174 5.614767 9.304577
1 3.019642 6.689817 9.002799
2 2.905785 6.327838 0.205968
1 3.647410 6.046074 1.342309
1 2.879299 5.848295 2.091822
1 3.138213 5.491525 3.688804
1 2.491506 6.094626 4.610181
1 2.339678 6.157945 5.681562
1 1.659608 6.148737 8.331161
1 2.453017 7.373272 8.543312
1 2.555842 6.459916 7.976903
1 2.438203 7.179111 9.742065
1 3.614989 8.034981 0.399291
1 3.004982 6.869935 1.122305
1 2.807730 6.866858 2.753191
1 2.678004 7.116654 5.220217
2 1.559108 7.663343 5.621360
1 2.447691 8.402025 5.211057
2 2.740261 6.646710 6.869766
1 3.005677 8.200769 8.188439
1 2.976044 8.336736 9.760195
2 2.192714 8.691239 10.609169
1 3.397081 8.907144 1.651478
2 2.275537 7.760724 1.607281
1 1.391627 8.037354 2.342159
1 2.999787 7.085061 4.012205
1 3.951918 7.953888 4.407794
1 4.067588 9.001832 4.716964
2 2.802851 7.582110 6.410465
1 1.572442 9.735139 8.452667
2 4.140846 9.166030 8.213377
2 2.780400 8.516710 11.656241
2 2.826978 9.655373 0.502975
1 2.327560 8.767308 2.313639
1 3.205383 9.763863 2.166039
1 2.284206 7.518534 3.237933
1 2.303463 9.225228 4.399631
1 3.437844 10.833131 5.345164
1 1.602350 10.822769 7.245355
1 2.005873 10.927773 8.318316
1 2.527969 10.912379 9.268321
1 2.742742 9.212860 9.456421
1 3.360482 10.468412 -0.648783
1 1.640732 10.820503 0.758012
1 2.139312 10.220786 2.055992
1 2.507216 9.880595 2.948989
1 2.532027 10.266559 3.985038
1 2.502982 1.017493 5.682178
1 2.775048 -0.444131 7.321526
2 2.835426 0.641274 7.423352
1 4.191732 0.425495 8.439552
2 2.951492 1.599072 9.405640
1 2.564347 0.217982 0.214603
1 3.021914 -0.377567 1.316464
1 2.300357 0.007967 2.899265
1 1.773266 0.053099 3.704985
1 2.770693 0.321946 4.553061
1 3.657367 3.485389 4.503217
1 2.957479 2.127009 5.560283
1 3.486524 1.394444 8.332516
1 2.591584 0.974050 8.542638
2 1.567557 2.890928 10.232250
1 3.141889 1.427379 0.548514
1 3.714446 0.668824 1.093482
2 2.529198 1.406110 2.845785
1 2.846931 1.179931 3.919262
1 3.421850 1.140604 4.900410
1 2.948592 4.124211 6.138552
1 1.857075 2.581566 6.384512
1 2.490115 3.004920 7.909458
2 2.300370 2.121198 8.535690
1 2.621547 2.768055 9.846524
1 3.068957 3.797371 -0.988826
2 2.956814 2.361289 1.438668
1 2.192656 3.689885 2.290104
2 2.465801 2.276124 3.515491
1 2.275408 2.608569 4.788878
2 3.552489 4.312940 5.234243
1 2.423237 4.029716 7.288458
1 3.211678 3.856919 7.872442
1 3.017259 3.260201 8.847686
1 1.797884 3.739401 9.532057
2 2.435800 4.594214 -0.402933
1 3.305872 3.280053 1.299130
2 1.414186 4.701353 2.135606
1 1.879522 4.206715 3.180457
1 2.426345 3.711260 4.279268
1 2.627526 5.220655 6.416993
2 4.268751 3.979790 6.252096
1 1.998880 4.986161 7.190921
2 2.760271 4.803076 9.281482
1 2.270335 5.523786 10.863724
1 1.794167 4.880396 0.890285
1 3.086899 5.186752 0.856995
1 2.813442 4.319012 1.679094
2 2.533264 4.913134 4.354730
2 2.153973 4.193755 5.126929
1 3.636716 6.357470 5.042137
1 3.341280 6.024999 6.314136
2 3.878322 6.505832 7.261645
1 3.524008 6.001833 8.282013
1 2.805043 5.915244 10.007513
2 4.036092 6.541871 0.101147
1 4.136363 5.274136 0.738099
1 4.448957 5.823248 2.245330
2 3.569826 6.137765 2.855235
1 4.356088 5.832045 5.504299
2 4.459400 7.181361 4.921401
1 3.885500 6.808904 6.000937
1 3.168845 7.561908 7.520372
2 3.369582 7.640895 9.116341
1 3.857141 6.622971 9.707885
2 1.838383 6.984520 -0.109201
1 4.172655 7.091883 1.267123
1 3.493616 6.832044 2.126367
1 3.816129 7.283589 2.981976
2 4.019337 6.716507 3.991513
2 3.555305 7.673286 5.671503
1 3.368880 8.620596 6.936699
1 4.202844 8.114049 7.871940
1 4.018871 8.674062 9.345337
1 4.195916 7.652406 9.829400
1 3.330988 7.417699 -0.358339
2 3.463746 7.786819 1.687020
1 3.086002 7.905816 2.607384
1 3.560708 8.355384 3.503433
1 4.712538 8.814853 3.991381
1 4.040271 8.730209 6.036834
1 3.081285 9.052788 5.743769
2 3.090050 9.380138 7.658884
2 4.848689 9.311185 9.126628
1 3.485353 9.114512 10.268832
2 4.357804 8.293196 1.085408
1 3.704053 9.073492 0.779160
1 4.390252 9.367429 3.004069
1 3.212262 8.954737 2.675906
1 5.058477 9.103219 4.843209
1 4.189005 9.642636 5.626080
1 3.551697 10.669777 6.429395
1 2.811253 10.141881 8.404255
1 3.537758 10.639295 9.174930
1 4.398702 10.584371 9.588270
2 4.624314 10.665634 -0.134395
1 4.469781 10.014236 1.399932
2 3.910491 10.663019 2.007919
2 3.363500 9.263889 3.893808
1 4.536900 10.078224 4.726261
1 3.031678 1.877870 6.659915
1 4.775969 1.020008 6.937369
2 4.053907 0.268765 7.224251
2 3.841370 0.829366 9.457462
1 2.983833 0.645052 10.101768
2 3.679645 -0.285071 0.541687
1 4.156994 1.063450 1.921415
1 3.287068 0.702345 2.304561
1 3.168474 0.420488 3.243578
1 3.684997 -0.281979 4.236873
1 3.842391 2.070784 6.275903
2 4.415363 2.375401 7.456499
1 3.595909 1.327112 7.211431
1 3.643359 2.421390 9.288617
1 3.470878 1.714089 10.359750
1 5.272626 1.069130 1.834611
1 3.447205 1.786978 2.224149
2 3.618742 2.260515 3.308188
1 3.817883 1.436265 3.904915
2 3.607708 0.969100 6.079296
2 4.009831 2.194578 5.168543
2 2.930942 3.067834 6.741932
2 3.292730 2.398007 8.098062
2 4.618432 2.609156 9.424571
1 3.548338 2.942860 10.357910
1 4.281315 1.419101 0.333366
1 3.900557 2.771636 1.997733
1 2.932445 2.907974 2.638345
1 4.082336 3.437946 3.377942
1 3.234360 2.383389 4.340967
1 3.644998 3.327965 5.589038
1 4.121510 4.330995 7.741564
1 3.986005 3.353265 8.432438
1 3.807741 4.181744 8.789918
1 3.711290 3.755174 10.877536
1 2.751706 4.270702 0.652502
1 3.322999 3.812515 2.805215
1 3.033736 3.155719 3.674088
2 2.562956 4.868674 2.779338
2 3.344917 4.368957 3.839445
1 3.635346 5.058744 6.074268
1 4.363594 6.018418 6.512527
1 3.995075 5.459543 7.541472
1 3.665647 4.643477 10.099987
2 3.511054 5.446813 10.660872
1 3.924518 4.275235 1.027944
1 3.892491 3.905617 1.970315
2 3.593906 5.053699 1.721355
1 4.057372 5.617908 3.704642
2 3.578596 5.351182 4.648255
2 5.726317 6.378700 6.334886
1 5.001157 6.718014 6.952886
1 4.582395 6.181825 8.307891
1 4.475460 5.274306 9.807117
1 4.932999 6.511483 10.165576
1 4.942130 6.504795 0.581145
1 4.979907 4.670481 2.143868
1 4.670779 6.614354 3.078340
1 4.935458 5.907722 4.419538
1 5.090332 5.081918 5.064659
1 4.981544 7.041028 6.025556
1 5.370257 8.053615 7.493193
1 4.005488 7.183171 8.385122
1 4.758913 7.088799 9.235198
1 5.591216 7.882580 10.709098
1 4.481754 7.440639 0.215799
1 4.999628 6.551424 1.718432
1 4.511493 7.340154 2.229334
2 5.148188 6.973685 4.046588
2 5.611314 7.198702 4.990726
1 4.927014 8.150020 5.289308
1 4.063369 7.486863 6.742977
2 4.482540 8.838229 7.017834
2 4.700071 8.124453 8.831587
1 4.412336 8.526404 10.798370
1 5.417921 8.366066 0.737322
1 5.500617 8.344897 1.837173
1 4.512785 8.377890 2.634288
1 4.519394 7.779772 3.592711
1 5.318511 7.937869 4.303415
1 5.093286 9.380349 5.964630
2 5.661142 9.488468 7.044843
1 5.834943 8.742750 8.131517
2 5.032509 8.298675 9.927004
1 3.788779 9.683037 9.468105
1 4.215589 9.573055 0.002076
1 4.357594 9.155347 1.963899
2 5.264487 9.660470 2.329868
1 5.387060 8.779910 3.029837
1 5.421596 9.498962 4.040989
1 4.882963 10.086765 6.692049
2 3.844627 9.589173 6.666686
2 4.434410 10.182188 8.040116
1 5.373058 10.261866 9.208933
1 4.981965 9.828781 10.082257
2 5.141998 11.857257 -0.232268
1 5.282633 10.175824 0.463347
1 4.986794 10.886910 1.535366
1 3.517263 10.244835 3.265915
1 5.460412 10.484735 4.387758
1 5.222814 -0.126742 5.412539
2 4.625698 0.326462 6.267585
1 5.271904 0.029306 8.112448
2 5.047735 0.953652 9.416460
1 3.842439 0.584239 10.703708
1 4.713694 0.501669 0.666306
1 6.040985 0.512436 1.201333
1 4.913491 0.048051 2.608833
1 4.120493 0.256160 3.489894
2 4.422527 0.445583 4.705391
2 4.592316 1.473059 5.750750
1 5.707027 0.960460 6.235815
1 4.369141 1.350595 7.901775
1 4.368978 1.631909 9.807801
1 4.376592 2.344983 10.685955
1 5.226805 1.701180 0.799438
1 4.173245 2.025193 1.330305
1 4.195989 1.288741 2.872306
1 4.836687 2.170303 3.441572
1 4.617276 1.475705 4.712970
1 4.666590 3.048834 5.404622
1 3.765707 3.267116 7.289815
1 4.882130 2.898876 8.270932
2 4.907097 1.938226 8.706085
1 6.034311 1.997322 10.293667
1 4.569133 3.369832 -0.362964
1 4.040123 2.939515 0.634087
1 4.574189 2.228281 2.527441
1 5.197365 3.335179 3.489440
1 4.476222 2.829911 4.332503
1 5.326041 4.208675 5.725138
1 5.228299 4.567598 7.501412
1 6.010633 4.171432 8.465544
1 5.246950 3.579520 9.188829
1 5.507177 2.919171 10.408973
1 4.584571 4.545422 -0.098784
2 4.737349 3.309926 2.451786
2 3.846626 4.844203 3.025754
2 4.780066 4.324477 3.430256
1 5.139769 3.935436 4.361919
1 5.588281 5.115079 6.050269
2 4.611554 5.031071 6.607261
1 5.088872 5.850417 7.551765
2 2.767046 5.084931 8.191718
1 4.496701 4.116904 9.691627
1 5.055532 5.537193 0.166625
1 4.899040 4.596733 1.162904
1 5.038016 5.356126 2.999645
1 5.478506 4.983730 3.856627
1 4.371875 4.613449 4.443473
