1000
Lattice="11.856311014966872 0.0 0.0 0.0 11.856311014966872 0.0 0.0 0.0 11.856311014966872" Properties=:species:S:1:pos:R:3 Time=1000
2 7.448909 6.021766 6.899419
2 4.920037 6.713935 6.447890
1 6.372741 6.597074 9.461005
2 4.992434 5.708456 10.321391
1 7.360713 6.105693 10.637238
1 5.752685 8.279894 0.638180
1 6.446197 5.741402 0.368496
1 4.540126 6.858539 4.427024
1 6.808696 5.344779 4.480745
1 6.375366 6.147585 5.383198
1 7.196170 8.622465 7.670792
1 6.280051 7.836110 7.368223
2 6.149822 7.422464 8.348285
1 6.553644 9.000027 10.731259
1 5.837795 7.603278 11.309498
1 7.810239 8.187810 -1.457000
1 6.659379 7.805261 0.686645
2 5.928675 8.120064 3.196825
1 6.943002 6.491584 4.465934
2 5.134753 7.770362 4.034710
2 6.629576 9.418399 6.273949
2 6.139789 8.767254 6.995376
1 6.143524 8.513187 8.228405
1 7.328752 8.742670 9.672601
2 5.788502 8.463957 10.346582
2 6.583633 9.193548 0.881531
1 7.443016 8.351654 2.604151
1 6.970039 9.039396 3.745156
1 5.854667 9.971213 4.291253
1 6.076325 10.746341 5.187749
2 7.952102 10.757527 5.958721
1 6.677989 9.735289 7.325458
2 6.042386 9.545904 8.200752
2 6.279190 10.187317 9.970019
1 6.761636 8.753052 11.777063
1 5.730380 10.329109 0.251049
1 6.596022 10.044840 1.605595
1 7.935163 9.265976 3.866436
2 4.975881 10.478120 4.231575
1 6.921971 9.898100 4.343199
2 6.725306 10.818103 6.465872
1 5.930268 12.442777 9.899676
1 5.989367 11.901280 8.900698
2 6.475683 12.598237 10.755749
1 6.121251 10.494799 11.138643
2 6.793544 10.438486 0.646809
1 5.540306 11.022949 0.921846
2 6.844703 11.277226 2.957271
2 4.582792 12.221651 5.066843
1 6.105909 11.803261 4.802577
2 6.556141 1.006836 6.196328
2 5.994415 0.810974 8.059796
1 6.986331 0.669253 8.430482
1 5.518866 1.586866 10.252121
1 7.525151 1.087471 11.244678
2 6.410914 -0.541773 0.049486
1 7.706464 0.105539 3.090071
2 6.550266 -0.077914 1.216983
1 6.877980 0.648939 5.226640
2 5.476299 1.528859 5.892070
2 5.328188 2.935146 5.972860
2 6.312233 3.279903 8.133985
2 6.256369 1.720461 9.484745
1 6.113979 2.507263 10.957953
2 6.368485 0.728768 11.895616
1 7.040511 1.597152 -1.760249
2 7.060473 1.477879 0.863483
1 6.347890 1.930426 1.743103
2 6.702892 0.579994 3.268743
1 6.417814 1.778313 5.448022
2 6.044467 3.980186 6.163184
2 5.350023 3.580849 7.801782
2 6.729983 3.781038 8.998419
2 5.137971 3.008598 10.706069
2 7.533597 2.266627 11.678447
1 6.334358 3.735451 0.796706
2 7.506831 4.270124 1.326564
2 6.294288 2.317213 2.893231
1 6.630254 1.893599 4.463023
1 6.622669 3.096039 5.322406
2 6.781934 3.601020 7.336379
2 5.235750 4.403737 8.708892
1 7.600926 4.473609 8.827622
2 6.431106 3.391162 10.185757
1 7.464862 4.920782 11.651011
1 6.147473 4.860040 0.861006
1 7.175674 3.486358 2.142551
1 5.565699 3.126212 2.698878
1 6.565491 4.300145 3.112033
1 7.083589 4.322099 4.884383
1 7.137362 4.315077 6.425691
2 6.825108 6.133074 7.861448
1 6.607415 4.554177 9.729953
1 6.212412 5.437576 9.894678
1 6.818204 4.215254 10.727040
1 6.378962 5.040084 -0.786637
2 6.100184 5.506447 2.504300
2 6.678130 6.677485 2.575179
2 5.295677 5.585025 3.499859
2 6.396811 5.034142 5.690481
1 8.540054 5.690189 6.647960
1 6.670489 7.378390 6.540851
2 7.331889 6.600629 8.791529
1 8.123689 7.288043 11.345094
1 6.260887 6.715799 10.603090
2 5.944262 7.127940 0.804099
2 7.067979 6.490002 1.069899
1 6.680446 5.739217 3.501740
1 8.310770 5.013652 4.078791
1 7.356851 7.297006 4.968630
1 8.055014 6.654187 6.063044
1 7.642598 9.552030 8.492973
1 7.446480 7.070238 10.129648
1 9.387446 8.104435 9.719056
2 6.787271 7.948806 10.605901
2 8.303117 6.448976 0.755576
2 6.638743 7.538803 3.691852
1 7.264662 7.442819 1.987365
2 8.446752 6.839809 4.538444
1 6.282119 7.660527 5.392811
2 9.010761 8.349569 5.994415
2 7.363807 10.184530 9.476161
1 7.862779 8.678000 8.747578
2 7.961210 9.351723 10.770266
2 8.691332 8.980858 12.334786
1 7.698542 8.697314 0.547640
1 7.557612 9.461011 1.701615
2 8.617760 8.484341 3.679556
2 8.160574 7.326955 3.164599
2 8.358275 9.341992 5.597122
1 7.659504 8.970197 6.374592
2 7.693807 10.121606 7.072219
1 9.321235 10.042054 9.075749
2 8.599224 9.749987 9.969155
2 7.051178 9.859158 11.530272
2 7.725572 9.823842 0.670680
2 6.023662 10.838650 2.072123
1 7.395225 10.491056 3.537064
1 9.612715 9.849607 5.234329
1 9.447441 10.256471 6.620374
2 9.056266 10.834319 5.576192
2 7.997004 10.689818 8.141382
2 6.865364 11.349725 8.586270
1 7.115577 10.415666 10.494477
1 7.825843 11.997412 11.185717
2 7.564082 11.264090 0.206491
1 7.346222 10.362091 2.367862
2 8.806050 11.248585 3.329911
2 7.006006 11.579595 5.577568
1 7.363615 11.744474 6.530153
2 8.247825 0.007749 5.875471
1 6.505996 0.198698 7.203530
2 8.241232 0.626862 8.102313
1 7.955471 0.549522 9.351721
1 8.075486 0.999962 10.290526
2 7.331538 0.525737 0.849293
2 7.924305 -0.161492 1.527603
2 8.137934 1.375075 2.989733
2 6.640503 -0.841389 4.217628
1 8.223900 0.227255 4.873687
2 7.667877 1.325326 7.337743
1 7.636086 3.157395 9.672292
2 6.932638 2.626064 9.087021
2 8.735621 2.381169 10.518707
1 8.341035 1.430601 12.107453
1 8.431270 2.341314 1.301613
1 7.863970 2.608553 2.311208
2 8.611663 0.369981 3.895508
1 7.625398 1.434733 4.525922
1 7.952075 2.157192 3.747739
1 7.371915 2.093725 5.931509
2 6.921071 2.173682 7.584005
1 8.841426 2.731404 8.312637
1 7.511106 4.088028 9.928946
2 7.290813 2.623066 10.411364
2 6.987561 2.976357 0.684927
2 8.363928 3.481077 2.162701
1 7.183956 1.481044 3.538341
2 7.894167 3.237956 3.219827
1 5.925399 4.632503 4.867884
2 8.190317 3.556367 6.714524
2 6.833428 5.048402 8.236942
1 7.253853 5.442835 9.114111
2 8.534777 3.870326 8.992705
1 6.927845 3.390966 11.402375
2 8.544494 5.619107 1.535084
1 7.424066 5.850907 1.834119
1 7.880672 4.194473 2.800072
1 7.521663 5.301028 3.159317
1 8.238336 3.900533 4.446260
1 7.993204 4.802459 6.780532
1 8.624537 4.920339 7.706438
1 8.875139 7.249164 9.879606
1 7.330495 4.965572 10.302870
1 8.729175 4.961112 11.794852
2 7.753139 5.455198 0.665829
2 8.153646 6.794486 1.764541
2 7.097139 4.729334 2.251512
1 7.523592 6.012914 5.158425
2 6.006892 6.070507 6.669584
2 8.690992 5.790635 5.428563
1 7.134895 7.338857 7.870064
2 8.447185 7.040427 8.899121
1 7.705688 5.926254 11.513980
1 10.292324 6.577527 10.268601
1 9.470058 7.294806 1.285469
1 8.277331 6.086656 3.799337
2 9.030870 6.276155 2.149507
2 9.672932 7.002578 4.559687
1 8.777641 7.497212 5.422897
2 8.123996 7.779858 6.587072
2 9.800588 7.956965 7.436642
1 7.214878 7.750689 8.970469
2 7.821277 6.084194 9.566453
1 9.539437 6.856324 10.739366
2 8.016175 7.735222 1.025530
1 8.117860 9.360312 2.678735
1 8.880324 8.589833 2.356432
1 9.988860 7.911575 4.865466
1 7.502102 8.499616 4.448713
1 9.856037 9.980465 8.011488
2 8.167520 7.858847 8.109105
1 9.002019 8.557605 7.923514
1 9.181074 7.838641 10.935237
2 8.716520 7.717460 12.057401
1 9.333774 8.428737 1.361609
2 10.237074 8.470383 2.298737
2 8.546089 10.293204 3.550062
1 7.637450 7.699962 3.925722
2 8.907326 9.425950 4.374026
1 9.978974 10.878439 7.395428
2 9.097854 10.747188 8.099047
2 9.004674 8.895100 8.955492
1 9.023042 10.388944 10.606389
2 9.804322 8.739829 11.355934
1 8.922488 10.262698 -0.093632
2 7.828570 10.607668 1.347939
2 8.533567 10.376030 2.174937
1 9.909100 10.584455 3.215327
2 9.973017 11.420922 5.928187
2 9.672301 11.874082 7.033464
2 7.593488 11.667532 7.851820
2 9.603028 11.721928 8.359299
1 10.463004 10.883356 10.659052
1 8.911934 12.511147 10.801721
2 8.597556 11.187541 0.733981
1 8.777780 11.572128 2.158930
1 9.648084 10.850626 2.207768
2 7.402896 12.012034 4.059112
2 9.523932 12.491666 5.867250
2 7.546738 0.778966 6.171716
1 9.286714 0.768778 7.775832
2 9.097102 0.370185 9.151563
1 8.387865 -0.037105 10.170792
1 8.766304 0.342844 12.068586
2 8.359129 0.904275 1.549688
2 8.794939 0.779519 2.459940
1 9.881487 -0.215107 2.930630
2 8.325298 -1.115691 4.768818
1 8.624042 2.126674 4.959761
2 7.894215 2.421587 6.939396
1 8.982300 1.245892 6.761435
2 8.063822 1.978279 9.351548
1 9.083613 1.383502 10.013862
2 10.167868 0.813359 12.309326
1 9.896612 0.459608 -0.738744
1 8.821245 2.162486 2.429257
1 9.816412 0.326387 3.886298
2 9.254379 -0.137739 4.924570
2 8.883975 1.764239 4.028203
2 9.666036 3.706383 6.653370
2 9.200634 2.789655 6.789289
2 9.069762 3.081241 9.762567
2 8.591236 3.341932 10.827120
2 7.974874 4.168306 11.055812
1 8.570775 3.625384 0.356715
1 8.524145 4.594922 1.129170
1 9.766553 1.133312 3.122321
1 8.727114 2.884337 3.630610
1 7.600102 2.731565 5.164326
2 8.746599 4.422685 5.871999
1 10.325570 4.920540 7.739371
1 8.323427 3.783783 7.866457
1 9.068994 4.934101 9.219409
2 9.625725 3.078269 10.949757
1 9.806294 4.666132 0.274680
1 8.174599 5.021570 2.403046
1 8.801865 4.200565 3.128731
1 9.057462 5.607776 4.432689
1 7.486333 3.667060 5.827934
2 9.477138 4.822736 6.753732
2 8.333022 6.581229 7.227463
1 9.585849 5.364612 8.276917
2 8.354170 5.932308 8.603598
1 8.533494 5.077478 10.086880
1 7.157743 6.890584 -0.006384
2 9.112137 5.452041 3.210769
1 9.734458 5.411210 1.998617
2 10.259458 5.920580 4.431252
2 8.082076 4.769502 5.116399
2 9.751878 5.818729 7.133599
1 9.947928 7.041267 8.271090
1 8.265120 6.659676 10.505054
1 10.980787 8.324112 9.796188
2 8.939222 6.495832 11.668947
2 10.209965 4.643387 1.430199
2 9.554261 5.684780 0.839321
1 9.326406 7.325499 2.372151
1 9.384415 6.484564 3.564569
2 11.223619 6.307854 5.135144
1 8.677064 8.780135 6.943260
1 9.501568 7.366545 6.141022
2 9.737118 7.989492 8.631666
1 10.220621 7.587847 10.056875
2 10.721530 8.068682 10.960714
2 10.152176 8.300621 0.479229
2 10.453575 7.212530 2.526146
1 10.166073 7.331752 3.601573
2 11.102906 7.109787 4.319510
1 10.557332 6.193342 5.854978
2 10.796930 8.883090 6.757321
2 8.754339 9.571896 8.060969
2 10.947211 9.569232 8.206671
1 9.830017 10.090345 10.059338
1 9.236259 9.418362 10.725506
2 10.989380 9.465767 0.909310
1 11.144443 9.020732 1.962547
1 10.221801 8.336517 3.370936
1 9.099374 7.464057 3.339610
2 9.835606 9.216064 6.937465
2 10.461182 10.847604 5.002266
2 11.070203 10.160987 7.129769
1 9.464183 11.200445 9.775110
1 10.650489 9.493921 10.537862
1 8.173948 10.862607 10.753545
2 10.169925 9.574852 1.779501
2 8.874390 9.613577 1.508066
2 9.277123 9.450092 2.915342
1 10.672459 11.038111 3.931298
1 10.330079 9.616514 6.101179
1 10.923513 10.501433 6.096113
2 10.709112 12.519768 7.711822
1 10.425288 10.980660 8.588898
2 9.674621 12.272503 10.049588
2 9.907013 9.927361 11.393730
2 9.555015 10.520030 1.065745
2 10.650663 10.850094 1.597957
2 10.979239 12.240245 3.283558
1 9.515698 11.002742 4.072044
2 10.340800 11.954565 4.846732
2 9.614781 1.225201 4.581599
1 10.294865 1.068432 6.832887
1 10.354831 0.281023 8.954494
2 9.667430 1.259897 8.656334
2 9.617289 -0.500482 11.176794
2 10.174214 -0.404194 0.619405
2 10.013660 0.757785 2.177326
2 9.364010 0.456957 1.259196
1 10.064888 2.579207 4.396202
1 8.408819 1.641379 5.973983
2 8.556819 2.760471 5.826211
1 9.559679 1.891469 6.242379
2 8.732436 1.770350 7.951280
1 9.401269 1.787758 11.085818
1 10.182936 1.386870 10.506447
2 11.274984 1.396060 -0.024689
1 9.606475 1.801388 1.744625
2 10.657935 1.686393 2.685503
1 11.106587 2.514497 3.931968
2 10.215911 1.851251 5.382441
2 9.972335 2.797625 5.799546
2 10.030453 2.311129 8.349687
1 9.803061 2.383024 9.457124
1 10.673059 2.229668 10.288409
1 10.198798 2.463826 11.905762
1 10.593237 3.741595 0.899622
1 10.301025 3.416047 1.876614
1 9.839685 3.548378 3.998888
1 10.696866 3.501982 4.862673
1 9.133070 3.047955 4.529671
1 10.633663 5.115202 6.328561
2 10.530499 4.426559 8.902095
2 10.177015 3.391994 8.972777
1 10.411229 5.391539 9.687117
1 9.083821 4.155095 9.859074
1 9.347414 4.477360 -1.101036
1 9.230238 3.031166 2.677597
2 9.820513 4.645513 2.969810
1 9.576266 4.536459 4.340332
2 9.524921 3.736022 5.364144
2 10.411673 6.073365 8.066083
2 10.400952 6.890475 6.942358
2 9.498242 6.264917 9.309289
1 9.074570 5.768785 10.883936
2 11.701210 5.538908 11.665871
2 9.218736 4.089499 1.949816
2 11.152250 3.699127 2.670363
1 11.032275 6.147540 2.281462
2 9.946874 4.866908 5.338076
2 10.994066 5.217748 5.231682
2 10.859946 5.799216 7.043156
1 11.392755 6.703056 7.567706
1 11.192730 6.782050 9.626283
2 10.148501 6.127480 11.277626
1 10.935254 6.877512 11.979872
1 10.637986 6.126218 0.791752
2 9.985915 6.448343 1.735873
1 11.637126 6.685448 3.155093
2 10.518090 6.310149 3.226926
2 11.398691 6.438869 6.327532
2 10.343809 7.862054 6.486176
1 11.507558 7.077052 8.518386
1 11.076860 8.234646 8.725004
2 11.208045 6.370043 10.904231
1 9.843698 9.297696 12.438002
1 10.534161 7.176168 1.070772
2 11.269306 7.897818 2.292811
2 12.656373 7.611782 2.806431
2 12.297014 7.953727 4.460325
2 10.792046 7.263762 5.536645
1 11.526009 9.512649 6.230280
2 12.003990 8.251383 7.791109
1 11.199078 9.348067 9.413987
1 10.125173 8.941377 9.718625
1 11.625142 9.221177 10.744476
2 10.796763 8.258437 1.347577
2 12.005101 10.669627 2.020046
1 13.079766 8.113783 1.549774
2 11.133303 8.511961 4.729766
2 10.235100 8.691118 5.462994
2 11.956663 10.888883 7.179322
1 13.095132 11.278536 7.086523
2 10.135219 8.780927 8.153061
1 10.431328 10.071028 9.212337
2 10.646011 10.668481 11.586918
1 11.072257 10.590982 0.696566
1 12.406700 9.657810 1.396000
1 10.075674 9.348872 3.833418
1 10.886527 9.862989 4.076996
1 11.489000 10.032159 4.927060
2 10.823556 11.408087 6.903944
1 11.789225 10.533216 8.221233
2 11.398225 11.654101 8.042484
2 10.639253 11.284958 9.651057
2 12.185475 11.450071 11.861683
1 11.295261 13.048191 1.053626
2 11.498756 12.833822 2.513334
1 10.657037 9.789437 2.645672
1 11.418747 11.763837 4.200497
1 11.540198 11.190162 5.106972
2 11.429598 0.552775 6.292738
2 11.759042 1.200832 7.473166
1 10.817374 1.340037 8.508380
1 10.858659 0.948940 9.627046
1 10.783110 0.139922 11.538436
1 11.578117 0.176983 0.605889
2 10.770466 0.371111 1.309185
2 12.076822 0.449149 3.338091
1 10.555312 1.235374 4.014007
2 10.627740 0.853767 5.537696
2 11.010398 1.814592 6.242602
2 9.904871 1.948080 7.314088
1 11.918862 1.803578 8.255404
1 12.470471 1.843975 9.642508
2 11.377599 2.243267 11.120762
2 12.218518 0.915200 0.011357
1 11.993992 1.969914 1.085838
2 11.645056 1.748931 3.321127
2 11.097986 2.594974 5.065384
2 11.632251 2.776304 6.225035
1 12.427254 3.589354 5.783254
1 9.883227 3.159111 7.735692
2 11.431815 2.408128 9.230357
2 12.115380 2.946141 10.026514
2 12.192940 3.073420 11.124898
1 11.039862 2.621614 1.058525
1 11.532194 3.517118 1.531181
2 12.551457 2.548405 3.422146
2 11.544401 2.760393 3.107550
1 10.644060 3.841672 5.839883
1 10.809740 4.277689 7.057752
1 11.539804 4.188196 8.311893
1 12.366165 3.408367 8.970690
2 10.280549 4.463512 10.008873
1 11.057131 4.236071 11.824424
1 11.130200 3.776866 -1.021901
1 10.688569 3.399968 3.561023
1 10.967793 5.201961 2.992133
2 11.928956 4.674440 4.160647
2 11.653914 5.189420 6.205374
1 11.949244 5.481911 4.939284
1 11.369417 5.188873 7.802851
2 11.513635 4.605737 9.398895
2 10.383277 5.070484 10.912364
1 10.733115 5.138299 12.212510
1 11.822936 4.093802 0.773538
1 11.195092 4.938622 1.913484
1 12.787683 5.322951 1.425181
1 11.447335 4.257118 5.387489
1 10.751575 4.844002 4.290171
2 -0.131245 7.532949 6.731764
2 -0.976430 8.193841 7.629176
2 0.141305 5.908341 8.227413
2 0.103009 6.094204 9.262531
1 1.058472 5.954217 9.922002
2 0.321606 7.495807 -0.358018
1 0.024705 6.686032 1.502996
1 0.588037 5.790945 3.783149
1 -0.415654 7.720679 3.503042
2 0.943609 6.960106 6.394978
1 -0.059172 8.602325 6.794810
2 0.803366 7.941670 8.479610
2 -0.002098 7.590903 9.628046
2 0.836284 6.981754 9.637964
2 1.154090 6.844433 10.718423
2 -0.585449 8.515355 0.299281
1 0.256605 7.597005 1.898820
1 1.587399 8.671820 3.733697
2 -0.318040 8.852792 3.142881
1 -0.470952 8.086308 5.887102
1 1.866485 8.959857 6.480993
1 0.486068 8.999543 8.548174
2 1.688114 8.717685 8.720272
2 0.685417 9.800983 10.269566
1 -0.532608 9.473846 11.698145
1 0.426230 9.317147 -0.088593
2 -0.155056 7.523665 0.840151
2 0.823780 8.737725 2.347265
1 -0.056072 10.044043 3.262799
2 0.177268 8.983700 5.387048
1 0.796402 9.988464 6.400457
2 0.259960 9.485818 7.328736
1 0.971372 10.255870 7.395351
1 -0.344914 10.782493 9.477113
1 -0.011018 10.748819 10.633957
2 0.267026 10.278261 -0.165974
2 0.243776 8.648062 1.340334
1 0.395524 11.160877 3.504508
2 3.031744 9.993456 5.082521
1 1.086344 10.705268 4.646351
1 0.776705 12.096358 5.441592
2 1.788594 9.698371 7.806985
2 -0.174697 12.364132 8.749938
2 -0.823885 12.359391 10.587582
1 1.370441 12.956943 11.480826
2 1.499721 10.752062 0.692397
1 0.107336 11.821089 1.604771
1 -0.781007 11.760321 2.346481
1 1.813120 10.374411 5.641192
2 0.739341 10.831078 5.737600
2 0.727672 0.438092 6.760536
1 1.299035 0.558363 9.783710
2 0.808802 1.042509 8.924962
2 1.504888 2.377148 9.944711
1 1.413454 0.152671 12.151029
1 0.539378 0.955440 1.686096
1 1.251714 -0.110840 1.389807
1 -0.385116 1.609926 4.537347
1 0.567333 -0.281759 4.471086
1 -0.489152 0.268811 5.219248
1 1.415922 1.421943 6.734259
2 0.492301 2.315116 6.889771
2 -0.953000 1.926399 7.692823
2 1.797836 1.942084 7.748586
2 0.197038 1.374708 10.519504
1 0.770110 3.250608 1.403315
1 0.367882 1.760730 2.234418
2 1.335410 0.566627 2.794887
1 1.618303 1.648292 3.084260
2 0.527412 2.070370 5.447459
1 0.914734 3.416271 6.984740
1 -0.435223 3.134130 7.283907
1 -0.686615 2.989802 8.250197
1 0.968791 2.077021 8.567564
2 1.107127 3.922715 11.091229
2 1.445876 4.211475 0.919014
2 -0.497695 3.027362 0.092882
2 0.645695 2.909306 2.303623
1 0.528911 3.684166 3.046201
2 -0.010539 3.510566 4.038005
1 0.110540 4.527569 6.917952
1 0.654073 4.414369 7.902658
1 0.641725 5.056788 8.787488
1 0.569198 4.444623 10.232422
1 0.686538 5.549868 11.057996
1 1.295032 4.690071 -0.014431
2 0.809566 4.192640 2.122813
2 0.022059 4.763513 2.683126
2 1.700986 3.932815 4.980510
1 1.046380 4.543997 6.510504
1 1.662444 4.200971 7.377883
2 0.310672 5.720011 7.046485
1 1.116926 5.268400 7.489897
2 -0.808290 5.725444 8.912095
1 -0.490533 5.370623 10.188430
1 0.084356 5.860609 0.811025
2 1.670821 5.833843 1.890810
1 0.187029 5.987647 2.503480
2 1.007036 4.944139 3.377438
1 -0.640060 5.855254 3.930893
1 0.648586 5.950868 6.115368
2 1.869384 7.125830 7.436505
1 1.816930 6.487565 9.165475
2 2.627993 6.767249 9.923745
2 2.585602 7.340168 11.025845
1 0.880233 7.131808 1.048461
2 0.952787 6.834422 2.036772
2 2.233556 7.369732 3.044703
2 0.114931 7.193903 5.503691
1 2.189339 4.784274 4.477286
1 1.962517 7.670554 6.237109
2 1.890634 7.538471 8.519075
2 2.550688 7.826235 9.512721
2 2.751748 9.004598 9.796501
2 -0.044807 8.047102 10.618550
1 1.429647 7.112799 0.154626
2 2.831642 7.847364 2.110898
1 2.411918 6.862499 3.922038
1 1.693621 7.576942 4.220220
2 1.011268 6.868199 4.895431
2 3.136491 8.715908 5.785824
2 1.396063 8.474139 7.345341
2 0.172283 9.913911 8.922430
2 0.407006 8.793922 9.744256
1 1.511990 9.336819 12.187793
2 0.966529 8.301355 0.462014
2 2.226002 7.669044 0.976142
1 1.061518 9.659064 3.418805
1 4.097128 9.976572 4.230241
1 0.672381 8.152525 6.098861
1 2.178701 10.174226 6.684414
2 2.724814 10.153660 7.964573
2 1.351687 10.473295 8.510070
1 2.086329 9.505212 10.592691
2 2.067803 11.102265 10.530161
2 2.480972 10.431614 0.491811
1 2.862369 10.162565 1.699995
2 2.324047 9.419716 1.203145
2 3.302367 9.706456 2.754112
2 0.202922 9.236130 4.129363
1 0.689282 11.309018 8.297715
1 2.651407 11.263871 7.661012
1 1.645283 12.211053 8.544799
1 1.832183 11.326011 9.011923
2 1.470708 9.004544 9.830505
1 1.060379 11.787318 -1.026727
2 1.207961 10.472174 1.721163
1 1.893535 9.143427 2.664027
1 0.506559 12.608683 4.505151
2 2.936118 11.290354 5.474215
2 2.380676 1.129368 6.712372
2 1.649839 0.508043 7.566116
2 2.170467 1.385681 10.058847
1 0.164047 0.592761 9.802877
2 0.985087 -0.661191 9.447949
1 0.720415 2.041225 -0.856537
1 1.327523 1.073192 1.049299
2 1.420731 -0.502870 3.422563
1 1.812688 0.702129 4.081204
1 1.920598 0.344776 5.913773
2 1.460409 1.175470 5.233594
2 0.951862 1.207064 7.821589
1 2.866366 0.906920 9.037470
2 2.304794 1.768419 11.984206
2 1.709517 2.861302 11.166706
2 1.202294 1.957826 1.456628
1 2.086367 1.263204 2.393584
1 2.901696 0.783512 1.881620
1 1.303366 2.122382 4.122026
1 1.587409 2.994404 5.545243
1 2.509978 1.947204 5.853797
1 0.694921 2.753966 7.930341
2 2.603454 3.467036 8.856706
1 1.127423 3.636617 9.727287
2 1.199618 3.085951 12.199813
1 2.470583 2.814995 0.575194
1 2.803172 2.099371 2.592404
1 1.792046 2.672354 2.480507
2 3.000208 1.884019 4.576584
2 0.835070 3.310713 4.811737
1 2.511007 4.385183 5.903418
1 2.612916 4.103464 6.848627
1 1.902448 2.660657 8.896074
1 2.110490 4.371544 9.696382
2 1.595214 4.881717 10.512328
2 2.698342 4.525678 -0.549461
1 2.092675 3.325414 1.445388
2 1.622412 3.707874 2.899621
2 2.193703 3.612018 3.932077
1 1.771508 3.764795 6.236352
2 1.792800 5.404177 6.596869
1 2.027745 5.912183 7.521654
2 0.584695 6.856395 7.795611
2 1.631328 5.218743 9.290527
1 0.632144 6.529783 11.935613
1 1.963416 5.143700 1.066656
2 1.845843 7.378385 1.948833
2 2.839877 4.376092 3.242268
2 1.384430 6.637931 3.194548
2 1.230983 5.096390 5.597969
1 1.824178 6.577593 6.042903
1 0.901363 6.514891 8.672785
1 2.582180 6.019705 8.761413
2 3.214240 7.091520 9.139647
1 2.007929 6.413062 11.330874
2 3.189137 6.781824 0.067149
1 3.414815 7.079499 1.098987
2 2.161490 5.366427 2.773844
2 3.043206 5.891966 3.083254
1 2.674253 6.657201 5.485736
2 2.678202 6.982484 6.698105
1 3.022449 6.586518 7.637502
1 3.309424 8.995589 7.684618
1 3.368720 7.516557 10.131735
2 1.794778 7.929257 10.415325
1 3.224711 8.233835 -0.071101
1 3.718896 8.470520 0.721957
2 3.861589 7.474223 2.244633
1 2.302566 9.055591 5.019919
2 1.395271 8.221542 5.281564
1 3.519956 7.794425 7.089824
1 2.565221 8.260610 7.322437
1 3.117196 8.866619 8.728455
2 2.777321 10.062745 9.841578
2 0.899920 8.451567 11.199310
1 3.415367 9.821122 0.633157
2 4.249882 9.160904 1.405448
2 2.680608 8.655427 3.020533
2 3.121359 9.430703 4.027850
2 2.833657 7.693353 5.684209
2 4.038239 9.321260 5.063561
1 2.793834 9.205938 6.700624
1 2.419879 9.980247 8.951817
1 3.950384 10.668129 7.583842
2 2.151127 8.093916 11.760455
2 3.940370 10.564840 1.367727
1 2.080880 10.339658 2.675092
2 4.343856 9.813180 2.316491
1 5.294732 9.551992 5.136382
1 4.172610 10.416306 5.320593
2 3.337434 10.773559 6.442403
1 2.769191 11.050210 8.647355
2 3.723898 10.628638 10.505027
1 2.295399 12.107413 9.896898
2 3.118617 11.371768 10.852804
2 3.470735 10.664765 -0.024289
2 2.185362 11.095998 1.519378
1 4.304102 10.541925 3.459405
2 2.317809 11.687627 2.575399
2 2.017839 11.513508 4.666457
1 2.616769 0.112751 6.734522
1 3.241452 0.276119 7.762718
1 2.838221 1.383479 7.869168
1 5.228770 -1.537395 10.615831
2 2.480903 0.629097 11.056428
2 3.597212 0.447225 -0.073838
1 2.776119 -0.022191 0.926511
1 2.591780 -1.379057 3.637877
2 2.572626 0.499161 3.326709
1 3.009882 0.956165 5.786080
2 3.930821 2.203457 6.190730
2 3.797368 2.287559 7.331484
1 3.493551 2.829593 9.223617
2 3.182383 1.544926 11.198611
1 1.991623 3.759834 11.953576
1 2.546566 0.897402 0.476703
2 2.526423 -0.310512 -0.052882
2 3.714584 1.572856 2.128025
2 2.409544 2.916827 4.948035
2 3.344702 0.587107 4.758347
2 5.155437 4.126337 6.698212
2 2.252970 3.366765 7.528830
2 3.506067 4.072821 9.307436
1 2.048929 3.347615 10.104498
1 2.706178 2.520639 9.789335
1 3.417535 3.025039 0.183858
2 3.128073 2.821071 1.464838
1 2.669268 3.267863 2.822278
2 3.769532 3.920760 2.963612
1 2.561322 3.071047 6.195906
1 4.580939 4.635976 5.855562
2 2.159312 5.147255 8.277448
2 3.040332 4.331263 8.069214
1 1.903986 4.116263 8.472348
1 3.283239 2.741244 10.974360
2 3.385263 3.745869 -0.601774
1 3.098068 3.971755 0.498572
2 3.407014 5.192016 1.936202
1 2.467630 2.575812 3.536675
2 2.909730 4.009819 4.874459
1 3.272648 5.796597 6.117112
2 2.755109 5.208773 6.895270
2 3.125504 5.430014 7.926388
1 2.945268 3.899739 10.229791
2 2.948057 5.415392 10.640117
2 1.467352 5.741350 0.225359
2 2.298509 6.271429 0.930487
2 2.454047 4.387550 1.852606
2 2.919738 5.669559 5.082674
2 3.402754 4.848890 5.559372
1 3.960619 6.473038 5.639691
1 3.709396 6.260928 6.967447
2 3.866353 6.089975 8.376464
2 3.873213 6.693034 10.571227
1 2.904264 5.500800 11.730659
2 5.328684 6.214674 2.201396
1 4.906268 7.207702 2.560022
2 4.133074 6.056907 1.689877
2 3.431747 6.194061 4.081733
2 5.137709 5.714256 5.595409
2 3.861503 8.292075 4.764273
2 4.384844 7.249938 7.446958
1 3.035689 7.658221 8.096472
1 3.871375 8.448230 9.458405
1 3.866090 7.792249 11.042341
1 3.997735 7.513815 0.216840
2 4.014624 8.549385 2.602568
1 2.986863 8.090945 4.145487
2 4.120634 7.501403 3.556728
1 4.644381 7.265879 5.436217
2 3.904393 7.539174 6.204663
1 4.607460 9.963806 8.525238
2 5.218792 8.800834 8.147752
2 3.600578 8.659864 10.501966
1 4.347500 9.973107 11.127867
1 4.723446 8.958187 0.372983
2 4.747382 7.939469 1.766894
2 5.567442 8.639868 2.080181
1 3.907881 8.745978 3.885464
1 5.148011 8.750476 4.507039
2 4.808634 11.762605 6.440751
1 3.865761 9.691984 7.081914
2 3.561381 10.208343 8.993406
2 3.813101 9.576115 9.812662
1 4.788727 9.953042 12.410198
2 3.257515 9.766727 -0.817628
1 3.406224 11.443263 1.704233
2 5.653443 9.534340 2.603877
2 5.479404 10.640778 3.085609
2 4.558196 10.162283 6.216171
2 5.555421 12.209620 5.599645
2 5.070126 10.305810 7.238181
2 2.797240 11.158109 9.781332
1 4.717848 11.251665 10.927807
2 3.933196 11.499696 9.993880
1 4.169333 11.706026 0.713156
2 3.897823 12.753635 1.307955
2 4.780331 12.169619 2.208194
1 3.081037 10.872937 4.403615
1 4.166682 11.229401 4.499119
1 5.720330 -0.406027 7.322918
2 5.007703 0.503926 7.416391
1 3.753316 -0.191836 8.657049
2 5.037797 -0.070079 9.677838
1 3.484948 0.490814 10.553256
1 4.785270 0.760751 0.013433
2 4.217192 1.715591 3.034046
1 3.494081 0.228482 2.725920
1 5.289529 1.620014 4.689832
1 4.234207 0.684282 3.499183
2 4.654926 2.682747 7.886002
1 3.783476 2.631018 8.313413
1 3.656429 1.765131 9.184062
2 4.705037 2.083891 9.614263
2 3.515905 1.719908 10.209196
1 5.389255 1.331093 0.810162
1 2.338635 1.794004 1.258694
2 4.465220 1.738293 1.286665
1 3.026817 1.585818 3.539804
1 4.394424 1.286391 5.834121
2 4.254700 3.478879 6.069893
2 2.736090 2.320064 8.396209
2 4.042073 3.762741 8.207892
2 4.537269 1.951890 10.790027
2 4.154765 1.762732 11.933398
2 5.395336 2.550601 -0.140306
2 3.857051 2.695753 2.400078
2 3.217714 3.109798 4.160248
1 4.643255 2.842128 3.258786
2 3.352776 3.151842 5.428170
2 3.519882 3.747838 7.216311
1 3.771392 5.092407 9.026967
1 6.087231 4.993951 8.911038
2 4.151800 3.086104 10.101164
1 3.975443 4.764974 11.443011
1 4.019158 3.416155 1.188046
2 4.470678 4.321786 0.889139
1 3.524391 4.964051 4.562115
2 4.425871 4.448332 3.957736
1 4.072161 4.205698 4.967955
1 4.546796 6.029585 7.484064
2 4.645258 5.378923 8.563912
1 2.689144 5.310375 9.593936
1 4.099428 5.741337 11.187239
2 4.477844 5.464720 12.278379
1 3.561276 5.284406 0.824210
1 3.724918 4.975482 3.270596
2 2.914309 6.262814 1.744751
2 4.208112 5.826903 4.731713
2 4.303190 5.628495 6.307351
1 5.530801 6.844539 7.488820
2 5.095833 7.566020 8.732617
1 4.558821 6.724510 9.326096
2 4.980511 6.398618 11.185510
2 4.939042 8.039983 11.630875
2 5.381784 6.094451 0.565993
1 6.420641 5.664743 1.500494
1 4.030243 6.358094 2.827492
2 5.587150 6.442295 4.501687
2 5.700433 6.840822 5.572448
2 5.525272 7.616496 6.448407
1 5.274808 7.944866 7.572262
1 4.203981 8.359863 7.742069
1 6.094739 7.818969 9.515481
1 4.622529 8.017387 10.397140
2 4.826604 6.926300 1.560912
2 5.851778 7.076382 2.043383
2 5.672335 6.618189 3.333390
2 5.331621 8.062149 5.286674
2 7.485991 8.245651 5.652409
2 5.702113 8.916710 5.965069
2 5.133218 9.254362 6.949230
2 4.830874 8.920461 9.236551
1 4.430749 8.833725 11.116308
2 5.539290 9.629849 11.389377
1 6.448093 8.065359 1.846141
2 5.415248 10.100783 1.503223
1 5.568390 9.070156 3.663836
2 6.142620 8.473590 4.555823
2 4.310852 8.517320 5.804309
1 5.637343 10.240308 6.083969
1 6.885027 10.328045 8.295716
2 6.378648 9.258805 9.366966
2 4.854947 9.290475 10.295696
1 4.424558 12.924106 10.428512
1 3.728431 9.112785 -0.114047
1 4.561427 10.966418 2.505711
2 6.716496 9.795138 3.038382
2 6.438779 9.382652 5.117738
2 4.980528 11.019568 5.644430
2 5.851026 10.802669 8.256839
2 4.904637 11.552283 8.470752
2 4.850609 12.696863 9.172715
2 5.192402 10.076396 9.469768
2 6.197384 11.398520 9.956003
2 4.931032 11.224354 0.082397
1 5.564440 12.080805 0.569378
1 3.270491 10.989216 2.509611
1 4.732423 11.550859 3.668911
1 3.789076 11.776890 5.957943
1 6.216623 -0.103675 6.228579
1 6.549811 -0.746139 7.574829
2 6.419855 1.325046 7.237947
1 3.861389 0.979726 8.561457
2 5.319120 0.291825 10.847948
1 5.535954 1.338440 -0.568235
2 7.325756 0.677199 2.108380
2 6.232472 0.701930 2.036018
1 5.770798 -0.255851 3.515218
1 5.397252 0.701804 4.267728
1 3.506073 1.027650 6.805664
2 4.939109 2.030998 6.774920
2 4.700824 1.734766 8.419294
2 5.694528 2.606654 9.839380
2 6.181040 1.910882 12.043301
2 5.705994 2.881684 0.859661
1 5.294938 1.102561 2.950637
1 5.544231 2.279966 3.756888
2 4.209952 2.066463 3.983645
2 5.491310 2.790825 4.823751
2 4.439437 2.459432 5.187525
1 5.612311 1.931417 7.699022
1 5.452298 2.372928 8.741248
1 4.665711 3.098434 9.011223
1 6.284732 4.193732 11.673188
2 4.534464 3.806942 2.002964
1 5.668173 3.616435 1.647508
2 4.980722 2.370011 2.071899
1 6.780851 3.659253 4.054704
2 4.791777 3.608478 4.309394
1 5.619057 5.179560 6.503772
2 5.743098 3.436689 9.043972
1 5.576289 6.606081 8.753232
2 5.465047 3.885281 9.998547
2 3.854059 4.511680 10.402226
2 5.246283 3.816482 0.300034
1 3.322453 3.711510 1.995522
2 5.629390 4.586709 3.773391
1 5.678935 3.363980 3.685670
2 5.121012 3.833125 5.330537
1 5.841293 5.480373 7.716657
1 4.036700 4.893184 7.205741
2 6.550134 4.974620 7.061715
1 3.472335 6.174606 9.547382
1 5.469980 5.093684 11.817787
2 4.977564 4.424223 -0.769761
2 5.309862 5.290386 1.366388
1 5.844761 4.554391 2.135141
2 4.738894 4.988296 2.340049
1 4.958930 4.946663 4.898640
