1000
Lattice="12.599210498948729 0.0 0.0 0.0 12.599210498948729 0.0 0.0 0.0 12.599210498948729" Properties=:species:S:1:pos:R:3 Time=1000
1 9.026117 6.462972 8.224993
1 6.446798 7.050882 6.457723
1 6.626757 6.829797 9.023900
1 6.379084 6.319875 11.766105
1 5.860088 6.902687 12.691428
1 6.243201 8.020667 -0.575684
1 5.739193 6.503834 1.244385
2 7.294592 7.852925 4.760462
1 8.355588 7.034342 4.592266
2 7.175857 6.230133 6.490478
1 7.190897 10.168252 8.017862
2 8.630951 8.529181 7.241116
1 5.571758 8.131731 9.043121
2 5.963787 8.576937 9.880137
1 7.476123 7.491073 11.875780
1 7.656114 7.832436 1.062389
1 6.528046 7.147402 2.209949
1 6.003794 9.269858 3.370446
1 8.463064 7.117484 3.524481
1 5.916639 8.599284 5.945344
1 4.773085 9.224806 7.306952
1 7.937686 9.320314 8.230410
2 6.714148 9.260769 8.877838
1 7.121819 9.153670 10.036125
1 7.398508 7.771964 10.869070
2 7.206471 10.579399 0.292771
1 6.569021 8.655311 2.372847
1 7.539605 8.954903 3.719275
1 7.397184 9.939185 3.727515
1 8.429243 10.727775 5.062084
1 7.343667 10.439825 6.012068
2 7.480660 11.065929 7.151308
1 6.314489 10.085552 8.597720
2 7.113064 11.173094 10.541516
1 8.261581 10.054672 12.977240
1 6.389927 11.500257 0.973250
1 6.688769 10.355068 2.375808
1 7.347202 10.926839 3.251584
1 6.324800 10.608122 3.934409
1 7.346723 9.996318 4.739976
1 7.351870 12.969594 7.054187
1 6.201647 12.674851 9.673792
1 7.477827 12.789133 9.710818
1 6.685321 12.278844 11.385320
1 5.530818 10.376312 11.861000
1 6.767790 11.823198 0.014229
1 5.471392 13.701936 0.606014
2 7.400364 12.238038 4.350128
1 7.182233 12.758775 6.116666
1 7.729397 11.778044 6.414072
1 7.596730 1.332675 7.012525
1 6.665612 1.198165 8.868357
1 7.420565 -0.005744 8.143956
2 6.468918 1.914231 9.643876
1 8.201862 -0.400730 12.417047
1 8.561364 0.612976 -0.819332
1 7.956958 0.395174 3.703395
1 7.708526 0.910093 1.868322
1 6.273892 1.211111 6.507336
2 5.995284 -0.264756 6.831858
1 8.361166 2.276323 6.592233
1 8.059399 3.234416 9.502683
2 6.239116 2.048988 8.369678
1 8.244590 1.768563 11.301049
2 7.286078 1.091782 11.274338
1 7.812424 1.073641 -0.258443
1 6.696772 1.290401 1.622483
2 6.069912 2.457662 2.224068
1 9.239679 0.753411 3.602495
2 7.157648 1.782137 5.974170
1 6.407427 3.626175 6.834077
1 5.614672 3.970805 7.797584
2 5.487448 4.313270 10.003416
1 6.481624 2.525238 10.762165
2 8.196332 3.668800 11.216858
1 8.237571 3.460128 -0.010415
1 7.169748 4.103292 1.140707
2 6.864284 3.217972 3.075585
1 6.621921 2.601687 5.230808
1 5.512544 3.087031 6.285000
1 6.903708 3.430736 8.281047
1 6.121691 4.227497 9.070819
1 6.037558 5.438258 9.854305
1 6.203627 3.832441 11.881408
1 6.966092 4.486058 10.556818
1 6.029754 4.640912 1.730725
1 6.996639 4.108311 2.333380
1 5.667176 4.034363 2.584692
1 7.797859 5.220040 4.813431
1 8.679853 5.643889 6.524566
1 6.515378 4.606883 7.025847
1 6.759102 5.865420 8.323274
1 7.087699 6.349938 9.921263
1 7.055700 5.557962 10.776101
2 6.676244 4.800853 11.726465
1 7.561273 6.177975 0.328445
1 7.990708 5.616621 1.745746
2 6.005121 5.598399 3.862084
2 6.538283 5.022576 2.732921
1 6.804315 5.253154 5.548634
1 7.701854 5.614278 7.775179
2 6.200532 8.504349 7.062366
1 7.727939 7.092601 8.434081
1 7.834009 5.048182 11.244742
1 7.942800 6.005555 11.319354
1 6.939502 8.360414 0.459144
1 6.692990 6.780725 0.944675
1 8.576623 6.294076 2.432746
1 8.766899 5.229922 4.822262
1 6.941192 6.591733 5.451282
1 8.669047 7.398852 7.893869
1 9.047129 9.483369 8.903238
1 6.743933 7.831224 9.960475
1 9.780496 7.215873 9.460987
1 8.026098 9.212515 11.417623
2 8.892963 5.800870 0.793970
1 7.077362 5.785535 2.213235
2 8.367835 8.076371 2.330632
2 9.501299 7.140264 5.122301
1 6.890471 9.397312 5.722113
1 9.436284 8.324521 5.567417
2 7.439523 10.386860 9.662906
1 8.603228 9.073642 9.694453
1 8.353907 9.920863 10.451798
2 9.723078 9.132147 12.114872
1 9.091092 8.182590 1.182512
2 7.223970 9.542131 1.223033
1 8.191021 7.997327 4.108646
1 7.168959 9.090304 4.842530
1 7.678168 9.911066 7.102718
2 9.100306 10.007453 5.562750
1 8.651792 9.744194 7.404997
1 8.398972 10.186058 8.634273
1 8.445136 11.011551 10.041985
1 7.529011 10.640647 11.475274
1 8.418694 10.853009 1.103431
2 7.642323 10.464957 1.852982
1 8.363622 10.485054 3.223838
1 8.497301 10.968135 4.110792
2 10.111831 10.895514 5.770423
1 9.743586 12.648133 7.096515
1 9.224605 13.920831 8.391282
2 8.153483 11.796853 7.747248
2 6.493276 10.852433 11.803380
2 8.292555 11.711927 11.118903
1 8.517049 14.039644 1.162012
2 10.428883 11.048220 2.268794
2 8.038244 11.904222 3.360783
1 7.270448 11.360833 5.426211
1 7.802231 13.297602 4.952945
1 8.319125 1.140131 6.185100
1 7.851598 1.292350 7.941727
1 8.472635 0.492959 9.139867
1 8.536274 2.258509 9.688150
2 7.015184 1.109771 10.011270
2 7.242098 1.873833 0.850466
1 9.187752 -0.928343 3.577909
1 7.949845 1.895828 2.946201
1 7.236392 1.581501 4.910533
2 7.033583 0.902617 3.474522
2 8.214413 3.252699 5.611556
2 7.144111 2.424553 8.688999
1 7.244805 3.382674 10.302113
1 9.522966 1.966600 10.991270
2 8.657842 2.377339 12.311387
1 9.672965 4.699189 0.237201
2 8.158137 2.484617 1.738706
1 8.632490 -0.046695 1.344480
1 9.246079 1.335009 5.300719
1 8.727141 2.353303 4.684207
2 7.236949 2.290508 6.968835
1 7.944260 2.652126 7.630545
1 8.105496 3.992788 8.250054
1 7.691562 2.614434 11.206601
1 6.159814 1.911591 13.360608
1 7.769520 4.463171 -0.474759
1 8.171189 4.627968 1.218986
1 8.639253 2.953329 2.704842
1 7.916840 2.896887 3.866885
2 6.580924 3.978814 4.688183
2 7.692013 3.928639 7.289596
1 7.512936 5.352504 8.870553
1 8.515255 5.277708 10.362226
1 7.154580 4.067963 9.513293
1 8.241490 4.677764 9.133298
1 10.021224 5.819102 0.639626
2 8.529917 5.600170 3.171093
1 8.319882 3.872207 3.073304
1 8.633036 4.361253 3.952895
1 8.840130 4.159605 5.386585
1 8.339178 4.193132 6.314190
1 9.133215 5.881726 9.253579
1 8.112993 6.288852 8.945034
2 8.321525 6.309573 10.135671
1 8.298806 5.061646 12.807548
2 6.625838 5.548958 0.097797
1 7.062425 5.605184 0.980243
1 7.409318 4.946142 3.681969
1 7.687626 6.506582 4.165530
2 6.241257 7.941760 4.287838
1 8.462781 6.624713 6.961696
2 7.318989 8.210566 8.743111
1 10.304621 8.387099 9.546652
1 9.101669 6.403421 11.330663
1 7.655441 7.348251 9.833607
1 10.428960 8.238920 1.475142
1 10.270739 6.404697 2.929146
1 10.532256 6.982782 0.773238
1 8.529830 7.096225 5.912664
2 10.963490 7.109811 5.217396
1 8.834537 9.103039 6.176240
1 9.972322 7.938096 7.132208
1 7.966709 8.278247 9.773238
1 9.235838 7.966493 10.471508
1 10.376799 6.855589 11.254364
1 8.951004 7.704571 -0.959209
1 8.532573 9.332724 2.888911
1 10.602376 10.338369 2.957184
1 8.567018 7.856923 5.112764
1 7.694533 7.550762 5.701015
1 11.422221 10.622369 7.682318
2 8.561253 8.520505 8.521205
1 9.459564 9.698347 9.920906
2 10.762041 8.428887 10.897262
1 11.227166 8.988330 12.796660
2 9.297866 10.279079 0.588580
2 8.465443 9.590171 1.527400
1 9.131150 10.081100 4.535374
1 8.183251 9.444496 4.243233
1 9.295481 8.811876 4.322477
1 10.905167 12.129301 7.707741
1 10.240114 10.953848 8.297514
1 9.182902 10.451651 9.264277
1 11.058391 11.515832 8.823680
1 9.392382 10.677668 10.661591
1 9.103430 10.350074 -0.607259
2 8.494272 11.264107 2.166358
1 8.987942 8.873295 1.984788
1 10.394087 11.043675 3.821286
1 11.330350 12.210961 5.527266
1 8.725205 13.094468 8.059850
1 9.292263 12.354025 9.097712
2 10.796547 13.007826 8.481298
2 9.436219 11.774354 10.023527
1 9.124048 12.257506 11.505531
1 9.103913 11.596808 1.340043
1 9.047584 12.490219 2.747239
2 9.458996 11.243195 4.632466
1 9.689286 12.409905 4.215368
2 10.921758 12.691230 6.584558
1 8.193321 1.777428 5.448830
1 8.473107 2.169285 8.643567
1 10.043724 0.786457 9.462771
1 8.394961 0.391356 10.641420
1 10.127390 0.144261 14.097718
1 9.490956 1.776795 2.678593
2 8.700447 0.878875 2.329565
1 10.760411 -0.673250 3.925031
2 10.068423 -0.555578 6.186126
1 9.753071 0.429489 5.999465
1 9.721373 2.017376 6.501131
1 10.062810 1.682748 7.644086
2 9.236993 1.148859 9.939472
1 9.556919 0.189880 10.685220
1 9.002046 0.488080 12.938327
1 9.781840 0.741885 -0.787798
1 10.116457 1.344555 3.317237
1 10.337747 0.631227 4.937356
2 8.286606 1.329141 4.256544
1 9.500215 2.491085 5.554061
1 9.154871 2.227685 7.477706
1 9.878819 2.378299 8.617998
2 9.612579 3.979977 10.505310
1 9.531365 5.157060 10.049727
2 9.304156 3.594834 11.839909
1 8.220554 2.497425 0.651775
2 9.141223 4.801869 1.451502
1 8.950553 2.265322 3.465128
1 8.986243 3.381610 4.198832
1 7.570274 4.104765 4.313841
1 9.680203 5.507981 5.980200
1 9.920916 4.675381 8.667085
1 9.733901 5.698808 8.319146
2 11.164626 4.049524 10.412480
1 7.954285 4.388861 10.344031
1 9.695340 5.526997 2.310240
1 7.981176 4.566875 2.266062
1 10.250261 3.711649 4.002674
1 9.642873 4.581953 4.266117
1 9.237305 2.960405 6.680999
1 9.178813 4.776664 7.378124
1 9.757623 7.221392 7.872119
1 10.766725 6.508550 9.404087
1 10.685117 5.509513 9.323923
2 9.023052 4.824015 11.370185
1 10.343126 8.375178 0.250851
1 10.849048 5.648091 2.231042
1 9.312272 4.762045 3.165753
2 10.951603 4.838210 4.025513
1 8.768593 5.858049 5.480951
2 11.315682 5.481358 7.090930
1 10.007683 6.577038 10.250967
1 11.248317 6.331437 10.606889
1 10.487576 7.500679 10.233804
1 10.670903 6.508834 12.300752
1 12.204567 4.951540 0.773370
1 10.901181 7.307522 2.230014
1 9.314617 7.696132 3.976851
1 10.357446 6.272747 3.995830
2 12.187286 6.446099 5.369937
2 9.919955 9.432476 6.814564
1 10.032445 7.294481 6.078436
1 10.686859 7.181257 8.464474
1 11.888649 7.894710 10.733279
1 12.146624 6.642383 12.765545
1 12.163230 9.167726 1.941139
1 11.298524 8.323321 2.125564
2 12.156715 7.825050 4.039039
1 11.282924 7.106662 3.829491
2 12.462279 7.592514 5.273922
1 12.690835 10.525005 7.570580
1 9.943849 8.089748 8.307670
1 10.798132 9.155715 9.146135
1 10.546458 10.788119 11.639785
1 12.431778 10.327459 10.519359
1 10.921520 11.353063 0.117505
2 11.673214 9.216315 2.803600
1 11.875277 10.447759 3.737747
2 9.830559 7.948924 2.377022
1 10.495832 9.128637 5.719612
1 12.728882 10.718462 4.543807
2 12.636845 11.987156 7.723970
1 10.602384 10.307332 9.727331
1 10.906097 10.117258 10.800360
1 7.882622 11.225577 12.207466
1 10.609795 10.654818 1.188054
1 9.712490 10.325165 1.757767
2 9.691636 9.596226 3.402232
2 11.528377 11.187957 4.617840
1 11.310534 10.991675 5.981297
1 10.973075 11.486038 6.849184
1 11.065064 13.785503 7.426297
1 11.457993 12.297105 10.509078
1 10.372044 12.245669 10.019360
1 9.488057 11.273202 12.454808
1 9.712755 12.219200 0.523948
2 11.101119 11.541863 1.310764
1 11.437477 12.667622 3.145326
2 8.513271 12.161944 4.423838
2 12.545698 12.308362 5.409252
1 10.822717 1.362403 6.337175
2 9.206006 1.018435 7.331822
2 12.343262 -2.481958 8.887942
2 10.416331 1.895391 9.636838
2 11.364086 -0.007287 13.185032
2 11.126914 0.147620 1.914691
2 10.036837 0.915556 2.350719
1 10.746208 1.104650 1.385109
2 11.166020 1.581956 4.951131
1 8.873731 -0.104623 6.036544
1 10.961778 2.600815 6.392990
2 11.049948 2.164771 7.953705
1 11.642105 2.106086 9.473660
1 9.674853 3.024347 10.973393
1 10.212399 1.247303 10.486169
2 12.368553 1.408571 -0.822625
1 11.056717 1.655172 2.521447
1 11.741728 1.957063 3.854512
1 12.012308 2.175812 4.747639
2 10.292097 2.577412 4.706225
1 10.378835 2.903000 7.362600
1 10.656585 1.439174 8.790241
2 9.502743 3.031524 9.799928
1 10.675859 2.762408 10.279097
1 12.526826 1.724062 13.115350
1 12.056255 3.304154 1.179887
1 10.229159 3.601405 2.241138
1 9.695117 3.473105 3.207790
2 9.572380 1.709015 4.251278
2 9.933472 3.461944 5.653680
1 12.173120 4.556230 5.749235
2 10.731186 2.823255 8.913978
1 10.936321 4.100555 9.276227
1 10.420092 4.847279 10.501762
1 10.275106 4.241876 11.332032
1 10.754917 5.013128 -0.282104
1 10.624494 4.088650 2.949520
1 11.198255 2.930852 1.893128
2 10.829483 4.119901 5.337424
2 8.782486 3.299319 7.572477
1 11.302798 5.335084 5.952149
2 10.982699 6.780091 7.576090
1 10.304896 5.807735 11.341845
1 9.089708 6.155233 12.334152
1 12.430744 6.386966 11.623332
1 9.034415 3.784832 2.232170
1 11.970478 5.517681 2.407989
1 11.708099 5.568628 3.705483
1 11.451776 5.799020 4.734659
2 10.287085 5.182902 5.010802
1 12.096874 6.649786 6.610732
1 11.434366 8.120690 8.318663
1 12.378358 6.074610 10.411841
2 11.605894 7.187164 11.408924
2 12.810566 7.135593 13.723027
1 11.598172 8.052410 0.994863
1 12.420728 6.741844 2.105899
1 12.063794 6.464537 4.059076
1 12.793853 7.363037 3.116133
1 11.016567 6.358046 6.446333
1 11.358240 8.523545 6.721848
1 12.901320 9.050700 8.723454
1 11.292071 7.710904 9.704222
1 12.600041 8.122657 9.924478
2 10.523469 9.522818 14.028294
1 12.302919 8.972300 0.775761
1 11.927309 7.654866 2.500868
1 11.264963 8.402109 3.293613
1 11.739533 8.719231 4.462258
2 11.313140 8.474272 5.424596
1 12.317045 8.602185 5.902807
1 11.840519 8.959871 8.455846
1 13.560868 9.891070 8.968164
1 9.993083 10.237252 12.436377
1 11.625644 10.366795 13.430022
2 13.170212 9.493491 2.787415
2 12.466434 12.020895 1.965820
1 12.495027 9.070371 3.956550
1 11.469600 9.828623 4.833675
2 11.748303 9.746701 6.124601
2 14.306564 11.911188 6.677819
2 12.297829 9.461529 7.605798
1 10.385242 9.531478 8.085852
1 9.918332 11.905893 11.217763
2 12.764200 10.618469 11.555946
1 11.156602 11.518896 -1.177111
1 11.867967 10.347658 2.054056
1 11.663429 11.533145 3.490857
1 12.315467 10.456566 5.510526
1 13.167176 9.328910 5.910036
2 13.203864 12.737945 6.310814
1 12.766282 12.449122 9.092276
1 11.634461 14.145966 10.253892
2 10.610764 12.819895 11.274885
1 12.030459 10.988289 12.533231
1 10.623551 14.640089 -0.809785
1 11.517522 14.270782 0.650355
1 12.247018 10.884605 2.846821
1 11.343351 12.940350 4.485521
1 13.824569 12.625508 4.013440
1 12.104287 0.631499 6.310832
1 12.669993 0.641269 7.253998
1 11.478990 -0.067858 9.412633
1 11.939700 0.491884 10.171015
1 11.752667 0.771947 12.444021
2 12.484411 0.474558 0.938145
1 12.017869 0.957845 2.824733
1 11.177980 0.958301 3.688316
1 10.476961 1.885026 5.635678
1 11.612417 0.606823 5.330800
1 12.849195 1.387003 6.484812
1 12.298855 1.548326 7.402087
2 12.608205 2.309065 9.867631
1 13.016096 1.289812 9.418276
1 11.659562 2.191076 11.066092
1 13.382640 1.662369 -0.967577
1 12.047682 1.654946 1.781741
2 12.418133 2.626268 2.555467
1 11.298933 3.137766 4.640983
1 11.508539 3.300142 5.882173
1 12.419364 3.184061 6.435158
1 12.376867 3.708285 7.656412
1 14.251963 3.699356 8.456591
1 10.786964 3.195946 11.390212
1 11.945888 2.997336 11.720138
2 12.858272 2.537528 -0.496312
2 10.999184 4.370733 1.699704
1 12.232403 2.769055 3.780445
2 12.406667 3.750430 3.290704
1 11.597492 3.973895 4.120025
1 11.333751 4.759323 7.849537
1 13.373157 4.310362 8.861479
1 12.218872 3.196668 10.718815
1 11.608347 3.429026 9.471858
2 12.658984 5.324769 12.079366
1 12.970207 2.883761 0.768088
1 11.659148 4.564507 3.279068
1 11.532794 6.434237 2.665645
2 12.633076 4.975437 3.722887
2 13.024114 4.655841 6.441867
1 13.226254 6.329456 6.597414
1 11.234338 6.082921 8.478230
2 11.831366 6.926212 8.905503
1 11.460818 4.749447 11.509044
1 13.065573 6.943301 10.987545
1 11.996886 3.747259 0.234747
1 11.546770 6.382512 1.552579
1 13.011132 5.759900 1.227310
1 13.731023 5.471697 5.810909
1 12.892798 5.732434 4.445649
2 0.558167 8.288306 8.030974
1 0.295065 6.691199 7.686293
1 0.145266 7.753994 8.945620
1 -0.239564 7.075401 9.883629
2 2.023409 6.689402 10.371313
1 0.453678 8.508202 -0.099286
1 0.296109 7.820150 1.910189
2 0.161943 6.119714 3.112469
1 0.580702 7.061733 4.189891
1 0.741347 8.214672 6.065156
1 1.696731 9.024795 5.973642
1 2.472342 9.189315 9.372834
2 0.510591 9.154454 9.729153
2 1.536993 7.890539 10.707151
1 0.488508 8.190688 10.911453
2 -0.020019 7.581236 -0.688102
1 0.897447 6.737904 2.134336
2 -0.002462 8.510495 3.068678
1 0.232693 8.547066 4.700321
2 -1.365649 7.440107 6.643133
2 0.635012 8.831929 7.070313
2 1.043518 9.423674 8.008335
1 -0.567364 11.401033 8.790583
1 1.015154 10.015876 10.779410
1 -0.394590 9.500936 11.441831
2 1.283862 9.477273 -0.464478
2 1.051759 7.965217 2.628968
2 0.766239 10.401391 0.135981
1 -0.251555 9.501169 5.176959
2 -0.500763 10.731075 6.693785
2 0.585550 10.401829 6.392642
1 0.418897 11.351600 6.954679
2 0.509463 10.563607 9.594563
1 0.665899 11.096450 10.730089
1 1.716659 10.975916 11.954390
2 -1.591483 10.099197 -0.187274
2 0.856689 11.571420 1.734686
1 0.848623 10.665721 3.390130
1 2.418974 10.729432 3.807931
1 0.323535 11.793494 4.190388
1 -0.339183 12.158766 6.463641
1 0.579521 11.079888 8.481900
1 0.283197 11.861436 10.023829
1 -0.092497 12.483838 10.871389
2 0.337042 13.268816 12.555970
1 -0.111792 11.780864 0.469709
2 0.717089 13.294885 3.223035
1 -0.190688 12.687479 3.553332
1 0.791366 9.961446 5.138307
2 1.505260 10.975943 7.354465
1 -0.609646 0.467353 8.252877
2 0.977919 0.255408 9.499469
1 1.448678 1.059036 8.939174
1 1.624402 2.319692 11.272482
1 1.971699 0.378965 12.920263
1 -0.071324 0.708602 2.000562
1 0.711394 -0.350813 0.847454
1 0.018213 1.707693 3.340578
2 1.504999 -1.062675 3.349422
1 -0.088791 0.528457 4.626589
1 0.134443 1.183308 5.552024
1 0.257658 3.319058 8.599396
1 -0.379057 1.586695 8.643700
1 -0.015594 1.487409 10.756575
1 0.726231 2.645857 10.947543
1 0.733994 2.596891 1.884215
1 0.995240 1.181056 0.693705
2 0.945826 1.357170 2.124240
2 0.773649 1.566289 4.344212
1 -0.284040 3.284363 5.119815
2 0.453374 2.204400 7.792003
2 -1.116804 3.151794 7.155451
1 -0.330197 4.119524 9.097834
1 1.416235 2.122450 9.333123
1 0.413574 3.660600 12.484098
1 1.395219 3.338630 0.366214
2 0.812626 3.963981 1.178130
1 0.047187 3.636602 1.949332
1 0.379245 3.905044 4.102965
1 2.689921 4.838124 4.888790
1 1.218777 3.582562 6.491387
1 1.681188 5.139313 9.199164
1 -0.109248 5.450345 9.467972
1 0.790878 3.744511 11.308461
1 0.977808 4.639159 12.780154
2 1.673852 5.785670 0.225113
1 1.704167 2.261284 0.393258
1 -1.512982 2.936233 3.374951
2 1.176004 3.749196 2.899125
1 0.842593 4.117884 7.393765
1 1.090387 5.019090 8.081203
1 -0.640172 5.020218 8.595322
1 0.961726 7.192693 9.690052
1 0.882018 4.697221 10.168884
1 -0.330157 4.952196 10.664565
2 0.905525 6.606468 -0.611077
2 2.044703 6.949792 2.023083
2 0.105853 4.747154 2.531532
1 1.426749 5.586153 3.747239
1 -0.083628 5.473467 5.607339
1 0.318368 7.215850 6.194834
1 2.648449 6.573967 6.076410
1 0.180900 6.179158 8.638754
1 2.291492 6.421258 9.283407
1 1.930862 6.576291 11.737388
2 1.255265 6.733225 0.962271
2 1.583394 5.956323 1.525632
1 2.766608 6.454310 4.548978
1 1.816872 7.082698 5.169683
1 1.227677 5.747011 7.079492
1 1.654058 8.630477 6.926032
2 1.552681 7.588826 8.453908
1 3.566902 7.234094 9.772720
1 2.813977 8.569691 10.330875
1 0.360071 9.170032 10.780705
1 1.112240 7.754830 1.423924
1 2.775451 7.921755 2.245261
1 2.681438 8.195468 3.443996
1 1.685463 7.667088 3.494048
1 0.961519 7.608124 4.975249
1 3.259069 9.411134 8.874365
1 3.176668 11.470095 6.814156
2 1.740891 10.011300 9.830848
1 1.389050 9.137137 11.080737
2 2.908994 8.889105 14.373358
2 1.315305 8.287985 -0.802380
1 0.493520 8.818285 1.888895
1 3.020641 9.447623 4.005020
2 3.492540 10.017017 4.780185
1 1.611730 10.234424 5.770614
1 1.863286 9.924078 7.006400
2 1.710613 10.510241 8.506387
1 1.213660 11.393678 9.240697
1 3.312506 10.583568 11.275395
1 2.298782 10.809467 10.919674
1 1.926423 10.448044 0.330367
1 2.368992 11.281141 1.454709
1 2.387331 10.184191 1.476326
2 3.329026 9.551982 2.645572
1 1.232200 10.911530 4.251581
2 1.007782 12.125318 8.334975
1 2.202158 11.700795 7.541037
2 1.830951 12.907869 8.146979
1 2.055124 12.329420 9.216099
1 2.458560 11.518798 12.558047
1 1.296335 13.135573 -0.741249
1 1.795385 11.493094 2.245201
1 2.615352 10.236995 3.014251
2 1.570248 14.811842 3.736968
1 3.274412 11.154420 5.004865
1 0.990967 0.227414 7.383780
1 2.087784 1.739511 8.522215
1 1.639372 0.292255 10.205679
1 0.645171 0.738228 10.870929
1 1.726856 -0.874208 10.252132
1 1.581986 1.311560 -1.697368
1 2.383395 -0.315436 2.515412
1 1.265779 -0.030673 2.064265
2 2.240780 1.604761 2.281559
1 1.655590 0.922601 6.486166
1 1.122126 0.753623 5.142545
1 0.544450 0.741464 8.393249
1 2.797270 2.112945 9.632048
1 3.160936 3.017838 11.463626
1 1.953243 3.585795 10.469879
1 1.594877 2.047902 1.415604
2 1.914233 0.578647 2.953956
1 2.225388 2.633938 2.360071
1 1.578295 0.998873 3.844084
2 3.214018 3.378072 5.662910
1 2.688304 0.109017 7.362579
1 1.297241 2.533006 8.440872
1 2.306884 2.864999 8.226332
2 3.047100 3.626488 8.740277
1 2.408451 1.895667 12.217517
1 2.836971 3.815516 0.869604
1 3.004862 2.075460 2.903041
1 2.387977 2.872880 3.345081
1 2.023378 1.914565 4.751939
1 1.623955 3.319424 5.042746
1 1.505991 4.554826 6.789833
1 -0.021396 5.360379 7.583022
2 1.077327 2.948905 9.931351
2 1.815733 3.521483 11.623525
2 1.372862 5.420764 11.624031
1 3.355647 4.810164 0.286838
2 2.549568 5.283501 0.854702
1 2.341974 3.843364 3.258633
1 1.854294 4.235600 4.223493
2 2.697987 3.370747 4.483672
1 0.053985 7.622756 7.150582
1 1.123557 5.752911 9.845771
2 2.090573 6.351963 7.481970
1 2.031458 5.427476 10.312600
2 0.974698 7.551569 12.937873
2 2.882406 6.278894 0.273747
1 3.240802 6.608362 2.103988
1 1.373663 5.348517 2.494617
1 1.336986 6.616927 3.350046
1 2.088157 5.498801 6.451226
1 2.895258 5.862679 7.927699
1 1.104643 7.419806 7.336857
1 2.797798 5.224598 9.689032
1 3.583445 7.854126 10.928351
1 3.429559 7.689156 12.241549
2 2.882621 7.542220 1.110173
1 4.549179 7.521032 1.032029
1 3.628935 6.048988 2.894558
1 2.886977 7.292263 5.277417
1 3.741971 7.704116 5.034457
1 3.364064 7.091407 7.318066
1 3.760244 7.541932 8.093000
1 3.430168 8.224154 9.090738
1 3.199675 6.468098 10.799904
1 2.581709 8.027957 11.539462
1 3.199008 8.379988 0.302886
1 4.099827 8.457193 1.817249
2 2.692300 7.189544 2.999063
2 2.792662 8.580021 4.620986
1 2.340455 7.982542 7.451627
1 4.550405 10.894494 6.421365
2 2.077432 8.612679 8.493773
1 2.433119 10.052909 8.959248
2 3.086545 11.247962 10.059436
1 -0.170211 9.470180 12.436534
1 3.521155 10.030411 0.632639
1 5.148169 9.861915 1.447028
1 1.985309 8.931062 3.289118
1 4.757779 9.227517 3.826516
1 2.957586 8.874660 6.626820
1 4.763185 10.156741 4.427358
1 2.406960 9.172272 7.537334
1 2.993642 10.225070 8.071437
1 4.466456 9.726104 8.184171
1 3.932284 9.226260 12.795335
1 3.112779 11.501568 0.800647
2 3.319596 11.977829 1.868113
1 3.882300 10.808203 1.203901
1 4.479790 9.214135 2.274209
1 3.732209 10.871315 4.124108
2 3.742604 12.279968 7.593038
1 2.540644 11.557952 8.520050
1 2.185566 11.184510 9.454318
2 2.482566 12.964690 11.060523
2 3.365420 12.183556 11.466439
1 2.849102 10.372027 -0.136528
1 2.696071 12.457337 0.747540
1 3.679920 10.828000 2.997699
1 0.420937 11.735261 2.851196
1 1.796494 11.885739 4.527636
2 3.457923 -0.017284 6.589045
2 2.898085 0.384212 8.733830
1 3.257550 -0.107176 9.704670
1 4.301877 0.630103 10.984534
1 3.238464 0.954117 9.637247
1 2.810066 1.306226 -1.160141
1 2.393259 0.326410 1.638311
2 2.573926 -0.170162 3.830611
1 2.317377 0.884852 4.526476
1 2.870998 0.842475 5.909272
1 3.451250 1.908124 6.020200
1 3.443890 3.411822 6.895977
2 3.754600 1.839129 9.452694
2 3.188443 3.153849 10.229502
2 2.270492 3.279988 12.607001
1 2.415197 1.460199 0.586419
1 3.825969 0.619523 0.632893
2 3.190537 3.316612 2.132796
1 3.852542 3.229301 4.786539
2 4.525615 -1.041781 7.172055
1 5.467749 4.265236 6.628494
2 1.958198 3.219650 9.345332
1 5.701475 5.243303 8.554026
2 2.506012 4.191296 9.544506
1 3.588057 2.057574 13.034752
1 3.692907 3.957036 0.572569
2 2.703710 2.747153 0.981721
1 1.912884 3.304955 1.683660
1 3.745556 3.391383 3.339415
1 2.274663 2.511941 7.253098
2 4.732528 5.212819 6.539154
1 2.552711 4.840133 8.677290
2 3.715225 5.324366 8.472422
1 2.152357 4.570235 10.942786
1 3.672181 3.183618 12.514173
1 3.714422 4.002228 -0.642784
1 2.409003 4.369705 1.628580
1 2.592557 5.518739 1.911035
1 3.878228 2.073167 3.556324
1 4.318826 4.166479 6.364464
1 3.727883 4.855315 6.878789
2 4.049286 6.498994 8.667747
1 2.013373 4.188749 7.675018
1 3.223832 4.418411 10.421316
1 3.534631 6.584051 13.687418
1 2.535054 6.386439 1.373668
1 3.654870 5.419902 1.188350
1 2.693729 5.440206 2.960365
2 1.756516 6.081683 4.832488
2 2.443678 4.272016 5.858204
2 3.950108 6.999301 5.986028
1 2.736033 7.727200 6.390605
1 4.929139 8.930488 9.222884
1 4.953532 5.685847 9.874995
1 4.369651 6.416384 11.772010
1 4.696085 6.558580 2.520788
1 4.866090 7.457742 2.664618
2 4.607349 6.793830 4.627524
1 3.265109 5.606024 3.835156
1 3.430675 6.072085 6.271373
1 3.145593 10.577211 5.770428
1 5.114324 7.212740 8.670526
1 4.568870 8.305929 7.677002
1 3.844260 9.952745 12.116963
2 4.836347 7.563335 12.187963
1 2.273393 7.650515 -0.017268
1 5.220461 8.657118 2.925210
1 3.530596 7.297029 4.106875
1 4.448355 8.203018 4.321808
1 5.166225 8.103172 6.619238
2 4.168844 7.855082 6.754993
1 3.647656 9.072517 7.648226
2 5.065851 10.535347 7.660206
1 3.079906 9.990106 10.420740
2 5.044826 9.529143 11.399596
1 4.870258 8.941883 -0.134915
1 3.751939 7.209982 3.038894
1 3.862978 8.350648 3.260242
1 5.403477 9.423070 4.843381
1 5.226060 9.353997 5.850880
1 5.369733 10.507412 5.796921
2 3.694924 11.918933 8.655673
1 4.229205 10.268981 10.773686
1 5.073560 11.490126 8.547122
1 4.728072 10.917429 11.616614
2 5.804103 9.014779 0.406193
2 5.190419 11.003975 0.941323
1 4.747403 11.209694 4.476925
1 4.464048 11.761207 3.599822
1 5.149963 11.587762 5.874359
1 3.865495 11.354408 5.918143
1 3.707779 10.916341 7.778354
2 2.320615 11.918553 11.233879
2 4.363531 11.574744 10.434754
1 5.530751 12.214294 10.812003
1 5.613013 12.242944 1.057394
1 3.836949 12.458678 2.968034
1 5.168257 11.813642 2.157276
1 3.207552 12.178134 4.608745
1 4.191493 10.478446 5.490824
1 5.517184 1.186221 8.259844
1 5.026695 0.846793 9.306814
2 4.797295 -0.108284 9.728300
1 6.668098 0.275382 10.568554
1 3.926468 1.545832 11.307603
2 4.518947 -0.328147 -1.113149
2 3.148699 0.983224 2.236428
1 4.111810 0.992089 2.708320
1 4.883326 0.414299 3.949138
1 5.865680 0.709228 4.577232
1 4.432800 3.652102 7.316898
1 5.379211 2.381186 7.289467
2 4.026146 0.911044 8.067932
1 5.606559 2.500952 9.949905
2 2.578926 2.142254 10.735084
1 3.685185 2.371570 1.480324
1 4.005865 1.239557 1.429752
1 2.951164 0.861431 3.510601
1 2.720438 2.313352 4.109775
1 4.266968 2.490813 7.422902
1 4.237412 2.965485 6.176489
1 4.188576 2.914485 9.588992
1 3.428573 4.504914 9.330319
1 5.821418 2.564230 11.714340
1 4.630084 2.836336 12.142975
1 6.639560 2.820570 -0.116734
1 4.505637 2.973633 2.146208
1 5.703607 3.449886 3.507830
1 4.734124 1.585193 3.826614
2 3.447242 5.185545 5.589335
2 4.298424 4.234250 8.351178
2 3.271741 4.414854 7.854510
1 6.109496 5.130243 10.821820
1 4.447857 2.340121 10.676827
1 4.690939 3.672778 12.698872
1 4.462549 4.735983 0.722281
1 4.010304 4.342323 2.005916
2 3.272796 4.309083 3.911854
1 4.111752 5.154127 4.365936
1 4.190117 4.368113 4.894116
1 4.060494 6.116062 7.292892
2 4.800150 5.767925 8.169597
1 4.605387 5.157303 9.064311
1 3.524391 5.189690 11.802073
1 4.897540 4.261966 11.422154
2 2.535078 4.972362 -0.591984
2 4.531540 6.249510 1.431658
1 4.343819 5.311484 1.837107
1 5.300523 6.684554 3.439736
1 4.976641 5.150287 5.290071
1 5.578107 6.563528 7.894391
2 6.170386 7.429091 7.897711
1 5.773190 6.109961 9.083252
1 5.226199 6.474082 11.285861
2 5.562201 7.912657 13.070420
1 6.557537 7.811786 1.298904
1 6.521563 6.141608 3.070904
1 4.967888 5.873712 4.177330
1 4.968367 7.298524 5.814545
1 5.857216 6.174679 5.268974
1 5.195065 8.204290 5.249995
2 4.946990 6.974260 7.000712
1 6.049665 7.281428 11.194683
1 4.533549 8.185097 10.035628
2 5.010447 8.482492 11.464361
1 5.610464 6.944058 2.081693
2 5.907830 7.767271 3.003345
2 6.449836 6.725651 4.450989
1 5.433441 8.479183 3.935976
2 6.030890 7.272643 5.431643
1 6.153604 9.971288 6.091881
1 6.574430 9.867090 7.000719
1 4.275539 10.827182 9.325749
1 4.225607 9.217176 10.814088
1 7.025692 9.241219 11.971168
2 5.278623 8.480032 1.409502
1 6.435388 10.163664 1.113979
1 5.267118 10.679897 3.475911
1 6.430868 10.347930 5.080136
1 3.626337 9.777106 6.495665
2 5.837605 11.291231 7.003045
1 7.053171 11.248820 8.261213
1 7.027038 8.959907 7.830005
1 5.570038 11.441321 11.764577
1 5.021478 12.099470 12.595588
1 4.603020 10.447498 -0.004871
1 7.056989 11.626661 2.374779
1 6.499468 9.532247 4.262688
2 6.089102 11.689197 3.097768
1 6.522175 10.876194 6.226306
2 5.760900 12.525968 7.988667
2 4.561710 12.587079 8.673325
1 5.787308 11.686704 9.449002
1 6.269113 9.768423 11.398652
2 5.898897 11.019899 10.181676
1 6.787484 13.193510 -0.289396
1 4.838816 12.984727 1.014289
1 4.261927 11.323382 1.973165
2 5.355619 12.058642 4.892629
1 5.483968 12.512818 5.910422
1 6.756745 1.088104 7.582722
1 4.883899 -0.103102 7.324366
1 7.804391 1.271926 9.180082
1 7.425827 2.443207 10.050569
1 6.599043 0.739800 13.408085
2 4.047195 -0.612958 0.836203
1 8.046284 -0.189563 2.347685
1 5.053854 0.076670 2.897896
1 5.188617 1.207263 2.788629
1 4.219876 -0.551063 5.105485
1 4.283905 1.497132 6.504465
2 6.335282 2.316763 6.538666
1 4.476598 2.743186 8.470991
1 4.542032 0.967253 12.019045
1 5.665241 0.773001 11.757243
1 4.590288 2.182165 0.834017
1 4.595691 1.729490 2.178867
1 6.498258 2.905016 4.001205
1 5.002092 3.538213 4.890055
1 4.858254 2.160571 5.844519
1 6.182130 3.729208 5.641244
1 5.953790 2.838860 8.919419
1 6.299214 3.486057 9.777459
1 4.429057 3.547336 10.331646
1 7.312227 3.542439 12.796144
1 5.812209 3.673517 0.318683
1 6.970201 2.998309 1.546098
1 4.799707 3.511438 3.000842
1 6.403689 4.280691 3.707170
1 5.587388 2.844236 4.431316
1 6.995255 4.805567 8.084176
1 5.106931 3.463215 8.878794
1 5.418107 7.203585 10.435413
1 5.893442 3.497505 10.747512
1 5.039614 5.344718 11.641253
1 5.342422 4.700971 -0.081746
1 5.167554 2.927781 1.303019
1 4.904559 4.072344 1.630704
2 7.258211 4.124733 5.560487
2 5.875718 5.078243 6.038234
1 7.464493 6.869896 7.372766
1 4.314147 5.078162 7.581792
2 5.558396 5.568972 7.195112
1 3.772964 5.934093 9.585222
1 5.244561 5.923474 12.840092
1 4.342785 5.505410 0.086754
1 6.023629 5.558477 0.969002
1 5.637980 5.564087 1.999967
2 4.896912 5.372550 3.096702
2 5.243276 4.756850 4.115965
