1000
Lattice="13.57208808297453 0.0 0.0 0.0 13.57208808297453 0.0 0.0 0.0 13.57208808297453" Properties=:species:S:1:pos:R:3 Time=1000
2 9.769418 5.401568 9.723115
2 7.111452 6.844565 8.658929
2 7.198753 7.768496 9.347076
1 6.629932 7.408504 13.164825
1 7.981689 7.225637 12.596369
1 7.168640 7.563358 0.649237
2 7.257791 6.765932 1.819650
1 8.434662 7.427990 4.454711
1 8.936396 7.580654 5.450355
2 7.006140 6.551607 6.285362
2 7.328820 10.542122 8.814262
1 6.269337 10.109339 8.002254
2 5.956342 9.312869 9.150663
1 6.381678 9.214668 10.721187
1 8.202724 7.705412 13.487047
2 8.651652 8.689446 -0.983378
2 6.249079 9.229136 1.320746
2 6.869543 9.445277 3.531600
2 8.954453 8.975262 4.366061
2 6.396152 8.479945 5.817883
1 4.659129 9.449734 6.929906
2 5.526260 11.596012 8.840225
2 6.752256 8.537720 11.501183
1 7.072329 8.468130 10.239498
2 5.959089 8.161380 12.017673
1 7.819030 10.852062 -0.515510
1 7.992932 9.773847 2.660600
2 8.867748 11.087694 3.526670
1 7.919277 10.522599 4.606770
2 9.070988 10.398281 7.844466
2 7.857715 12.043329 7.267036
2 6.863492 11.316683 7.725952
2 8.009075 10.069980 11.409464
1 6.442473 11.919665 10.975019
2 9.343478 10.723875 13.544544
2 7.132830 13.980053 -0.493277
2 6.610577 11.510103 2.452577
2 8.555974 11.827120 4.509079
1 6.912856 10.899296 5.098567
1 7.523105 10.001568 5.502661
1 8.415857 14.566761 8.319660
2 6.063923 13.707599 9.774671
1 9.208567 12.915641 8.360721
2 6.914047 14.574969 11.429298
2 6.177360 12.246999 12.198919
1 8.826153 13.008021 0.547303
1 6.706427 13.642982 0.421438
2 7.830271 12.554285 4.003921
1 6.733533 13.383552 6.154432
1 7.495870 13.119130 6.801618
2 7.165934 1.866057 6.423406
2 6.989889 2.004341 10.132050
1 8.668250 -0.509848 9.420279
1 5.985621 1.124284 10.857863
2 8.200514 0.207843 14.064725
1 8.376168 -0.811770 -0.419161
2 8.173986 1.425826 3.561806
2 7.716231 -0.447447 2.035110
2 7.712449 1.277930 5.451825
2 6.939467 0.593496 6.726424
2 7.273034 2.741346 7.203910
2 6.641601 3.528712 9.939265
1 6.829020 3.429016 11.274033
1 7.993637 3.311480 12.167741
1 7.813023 0.877244 12.505457
1 8.627090 2.228849 0.681059
1 8.532920 1.556388 1.908362
1 5.438412 1.707219 1.960808
2 9.526366 2.399986 4.039650
1 7.732157 2.408126 5.811599
1 8.363234 4.637623 8.253956
2 6.330946 4.680169 9.340950
2 5.784759 2.545380 10.072962
1 5.338881 2.859872 11.306762
2 6.743192 3.194044 13.433543
2 7.354558 3.781422 0.729503
1 8.012552 6.141780 0.648763
2 5.801718 3.498928 2.750216
2 7.521510 2.341970 4.869596
2 8.108033 4.730572 7.160318
1 7.334084 2.942859 9.287679
2 6.451008 5.351869 10.504693
2 6.663252 6.048175 11.423554
2 5.561454 5.294995 11.352354
2 9.560111 5.670090 12.002023
1 6.172320 4.389219 -0.067597
1 8.421552 3.425220 2.307622
2 6.604818 4.662492 2.841815
1 7.171851 4.687340 4.075530
1 9.256112 4.109576 6.466187
1 7.765210 3.849336 8.806342
1 7.347047 5.774514 7.275700
2 8.448995 6.561933 10.059981
2 6.679162 4.801035 11.576105
1 7.212704 5.297058 12.443903
2 7.688806 6.602910 -0.228646
2 8.265840 6.933007 1.260110
1 5.891328 5.644111 3.754129
2 7.242158 6.978431 4.440976
2 6.253028 5.738351 5.558975
1 7.948758 6.595632 7.864940
1 8.287170 7.905257 8.975746
1 8.030755 7.538038 10.158799
2 8.350596 8.604918 11.541164
1 9.525241 7.521190 12.924155
1 7.702421 8.440702 1.487254
2 8.257553 5.761661 1.572167
2 7.314252 5.524993 2.251368
2 9.618614 6.454096 5.953524
1 7.249003 7.972757 7.296317
2 8.881309 9.268526 7.225640
1 9.624425 9.761158 9.403117
1 8.359774 8.865485 9.589594
1 10.728899 7.726324 10.866275
1 9.559864 8.853023 11.916662
2 9.422768 7.944783 1.623231
1 7.869321 7.262431 3.003666
1 8.332914 8.998561 2.026013
1 10.403077 8.036366 5.730206
1 8.792923 11.653189 6.163988
2 8.951329 10.389415 6.625888
2 7.722264 11.704893 9.688226
1 8.770812 10.148445 10.150030
2 8.476038 9.741666 12.231480
1 9.787536 9.382766 13.240533
2 8.450150 10.043242 1.581839
2 9.329798 10.471615 1.916066
1 8.570613 9.658225 5.298270
1 8.911891 9.236105 6.065235
2 9.857728 9.808855 5.458628
1 10.086021 10.563154 7.031623
2 8.992912 11.473171 7.485655
2 9.910531 10.701661 9.810482
2 9.387266 11.323127 11.015288
1 8.736316 10.951494 12.443848
1 8.307986 12.344591 1.190887
1 8.110026 11.847793 2.110061
2 8.670970 12.472431 5.477416
1 8.987102 11.000313 5.358522
1 10.680083 12.160073 7.145086
1 10.417392 13.989483 6.738836
1 9.675256 13.304447 10.340971
1 6.756819 13.072352 9.232088
1 7.594958 12.366052 11.407853
1 8.560936 11.794476 13.422726
2 10.174631 13.458819 0.906343
1 10.657383 11.902246 2.406841
1 9.380085 13.661828 3.108874
1 7.949651 12.409395 6.189709
1 8.483229 14.081386 6.938698
2 9.523307 -0.654604 6.167344
2 8.585351 1.711324 9.071747
1 9.533412 1.699542 9.693344
1 7.829317 2.421925 11.255064
1 8.501634 0.258276 11.765840
1 7.876825 1.457350 0.517730
1 9.313735 -0.044307 1.766757
1 9.101910 1.457339 4.184983
2 8.094107 -0.247941 5.838102
2 10.107184 -0.310146 4.046884
2 8.525298 1.956740 7.226644
1 6.724130 1.776816 8.829649
2 8.670962 2.133070 10.162317
2 9.268787 2.415798 11.462164
1 8.103594 1.408296 11.542423
1 10.013860 3.532393 -0.109085
1 9.554315 3.335733 3.048247
1 10.324425 1.835856 3.636865
2 10.118786 1.514823 4.870099
1 9.026451 3.068537 4.804608
2 9.948013 2.883144 6.511476
1 9.185730 2.133384 7.913884
2 9.859866 3.332128 7.943200
1 8.263625 3.316578 10.835491
1 8.249369 2.431220 12.983113
2 7.418378 4.606839 -0.213775
1 9.624869 4.599444 2.198740
1 8.508480 2.363099 4.356329
2 10.532024 4.587785 3.006566
1 8.076115 6.167252 6.426146
1 8.315168 3.051371 8.486577
2 8.659877 5.730744 9.227117
1 9.498289 5.812020 10.755736
2 8.161019 3.682787 9.911567
2 7.509624 5.459391 10.884562
1 10.052392 6.605599 0.959607
1 7.637187 5.904266 4.776778
2 6.847502 3.453876 1.787057
2 8.623991 4.702522 4.128643
1 9.136057 3.209358 5.856441
2 9.262922 5.330426 4.896163
2 9.775469 6.876777 9.914194
1 9.108200 7.611934 9.526914
1 8.601807 6.192221 11.134127
1 8.760979 6.283275 13.344626
1 7.370088 5.610838 -0.043581
2 8.228631 4.943559 0.561216
2 7.761302 4.910552 3.143601
1 9.996649 8.698482 4.010215
2 7.892874 7.906289 5.633670
1 9.885149 6.398623 6.936542
2 9.359124 8.660199 9.290902
2 10.642911 8.038172 9.626751
2 9.704268 6.593226 11.453410
1 9.380553 8.208748 11.194281
2 10.488406 8.754981 1.372023
1 12.441094 5.568468 3.097357
2 10.791665 7.211375 1.390322
2 9.693287 7.655594 6.495702
2 11.729335 8.357325 5.252359
2 9.894773 8.728186 6.652479
2 11.134987 8.928338 8.535539
2 7.279858 9.149831 9.209057
2 9.649682 9.877638 11.311061
1 10.640840 7.555249 11.942797
2 8.743782 9.688416 -0.108682
2 8.706173 9.895204 3.679423
2 10.271692 11.143346 2.937562
1 9.642282 8.452613 5.081407
1 9.704859 9.686185 6.412289
1 10.559645 11.872331 9.176590
1 8.858811 9.129077 10.549087
2 11.512611 11.508875 9.987819
2 10.599980 9.256595 12.342895
1 11.274797 11.324420 14.109687
1 10.700468 9.729955 0.557221
2 9.524445 9.844009 0.798492
1 9.670178 11.173276 4.324176
2 7.797095 8.313916 3.933383
1 9.641217 9.937654 4.417169
2 12.972313 11.160992 8.329278
2 11.971817 11.790280 8.762842
1 10.890075 9.842945 10.576477
2 10.432453 11.951166 10.852857
2 9.817161 11.193933 12.033648
2 9.764211 11.911514 -0.506875
2 9.598520 12.305260 2.814866
2 8.338032 11.998677 3.078102
1 10.860841 11.766495 4.733130
1 12.178380 12.181021 4.113117
1 9.830401 15.343343 8.548079
2 9.652170 14.013057 9.605990
1 11.536117 14.812478 10.169813
1 11.448140 13.338554 11.461276
2 9.321132 13.737703 12.681328
1 10.533199 12.424338 0.331759
1 9.542086 11.926507 3.760959
2 11.063543 12.570890 3.480921
2 9.076505 12.979660 4.093776
2 11.769782 12.082197 6.707739
1 9.446430 0.782419 6.496628
1 11.013716 1.973627 8.674664
2 9.228064 1.078233 11.193452
2 11.584635 0.847294 12.305801
1 9.354290 0.791837 14.000663
1 9.578335 1.199050 1.654096
1 10.230813 0.349492 2.463871
1 11.792306 -0.363125 4.089639
1 10.444014 -0.459774 5.329044
1 10.957651 2.755413 6.774624
2 9.571554 2.916869 10.456540
2 9.936258 1.739396 7.196885
2 10.060365 2.281738 12.249928
2 10.166786 1.390637 13.923132
2 9.398738 2.462107 13.380248
2 11.476590 2.150579 -1.091408
1 9.931120 1.410569 2.549814
2 11.008773 0.947703 3.497350
2 9.237763 1.287590 5.435029
1 8.437803 1.281556 6.213274
1 11.126453 3.036345 7.856847
2 9.201438 2.989591 9.333760
2 9.258968 4.394402 10.995653
1 10.486166 5.211928 11.511978
1 9.660337 3.413131 11.791261
1 10.152709 5.275724 0.916764
2 10.411996 4.240469 1.520635
2 12.378996 2.648832 4.657754
1 8.566198 4.154841 3.022507
1 9.036613 2.234395 6.423803
2 10.718864 4.514031 5.504034
1 11.350442 4.221589 9.082250
2 10.730261 5.344142 9.314693
1 10.599552 5.478817 10.553171
1 8.906790 6.724000 12.307524
1 9.946771 5.925243 0.026809
2 9.280631 3.957155 3.884681
1 10.957141 5.514896 3.880218
1 11.491547 5.454428 5.477879
1 8.880143 3.188413 7.583963
2 10.322791 5.278143 7.078396
1 9.469119 6.048390 7.711113
2 11.147952 6.944182 8.526282
2 11.518196 4.967974 10.078788
2 8.326972 5.781582 12.133737
1 10.031540 7.730039 0.574521
1 11.071216 6.231826 3.038099
1 8.791254 6.031892 2.548218
2 11.293556 6.251951 4.745378
2 9.511831 3.902705 5.116568
1 12.342350 7.900884 8.330592
1 10.924855 6.845684 10.293377
1 11.013950 6.296937 11.944296
1 11.481081 9.905780 12.488862
1 11.483816 6.775720 14.279457
2 11.623424 5.657586 1.616606
2 11.082170 9.992871 2.281955
1 10.143884 7.493381 2.853453
2 10.186419 6.448735 4.033790
1 12.100142 7.058447 5.172217
1 10.952935 10.593170 7.900404
1 11.180198 7.226767 5.720962
2 10.306855 8.748276 10.918275
1 12.367645 7.736113 12.107325
2 14.228794 9.105409 12.191989
1 12.554359 10.301997 1.441540
2 11.591010 8.716917 2.829425
2 11.148878 8.139228 1.945094
2 12.250555 7.563333 3.847604
2 13.959401 7.205226 5.076370
2 13.252069 10.077649 7.773981
1 11.773866 7.952297 9.121940
2 11.608433 9.544597 9.815864
2 10.861117 11.707327 12.978232
1 12.103606 9.375101 11.957241
1 13.082901 11.992685 0.580841
2 11.892201 9.597893 3.459107
1 12.371619 10.308113 2.397967
1 10.233397 8.921575 2.569128
2 10.196456 10.749571 5.888719
1 12.090470 12.393175 5.794246
1 13.868401 11.097041 7.003359
1 11.622885 12.300714 12.276278
1 11.538999 11.042764 12.292864
1 8.990307 12.166755 11.598021
2 10.488668 10.747391 0.303283
2 11.472529 10.948413 1.754722
2 11.410251 10.872685 2.993220
1 12.828440 11.480351 6.348989
1 12.034680 10.752189 7.953065
1 12.599281 11.652110 7.366817
1 10.794530 14.623468 8.098198
2 12.177170 12.189698 11.166017
1 11.304357 12.462683 9.659607
2 10.264287 12.854440 12.812328
1 11.737530 12.564092 0.374886
1 11.166458 12.899424 1.566351
1 12.059617 15.228866 2.855165
1 11.478800 13.588316 6.229118
2 13.808282 12.104112 6.471755
2 10.842664 0.944728 5.427075
2 11.231546 1.905548 7.492191
2 10.794647 0.130237 9.104185
2 11.863350 -0.208324 9.900502
2 12.591928 -0.230548 10.727186
1 12.666515 -0.414703 2.249594
1 11.675229 0.721277 2.147084
2 10.684815 0.805667 1.257149
2 12.201035 1.062267 5.016721
1 9.454442 0.150053 5.461461
2 11.750855 3.610439 6.177625
2 11.669773 0.701889 7.448862
2 10.651184 1.336931 9.581984
2 9.602315 1.219782 12.206205
1 11.007364 1.532040 11.574006
2 12.570455 1.749180 -1.272518
1 11.480148 1.901077 1.588509
2 12.807265 1.781819 4.108338
1 14.003447 2.538082 3.994846
1 10.194346 1.856640 6.184694
2 12.247436 2.754169 7.526496
1 10.813990 2.636573 9.718218
2 10.243907 1.971541 10.627502
2 10.489830 2.756506 11.338536
2 12.784896 1.800889 14.092525
1 13.900359 3.001320 0.231884
2 11.478117 2.507220 3.915844
2 11.477369 4.476375 3.868155
2 11.197213 2.751066 5.583329
2 10.846672 4.127445 6.760789
1 12.532909 6.055677 7.589707
2 12.289173 3.097330 9.053823
2 10.685022 4.351869 10.108274
1 12.806640 5.253077 10.385964
1 10.802784 4.275851 11.289242
2 10.306557 6.813304 -0.997269
1 10.625010 2.674436 1.904031
1 11.492029 4.566813 2.087521
2 10.114181 5.344079 5.734160
1 10.009134 2.523325 5.036772
1 11.993170 6.829122 7.941857
2 12.561157 7.216629 9.424803
1 11.547625 6.613348 9.393341
2 11.214512 6.051533 13.590518
1 12.529983 6.716338 13.994946
1 10.459473 5.247771 2.080609
1 12.630732 5.677601 2.062560
1 11.449790 6.776010 3.873870
1 11.476170 5.554799 6.781890
1 12.127169 4.868850 6.266003
2 12.747554 7.619685 7.254386
2 12.588305 8.293438 10.237763
2 13.734460 6.553640 11.494677
2 11.819773 7.202147 11.045512
2 12.852298 7.006592 14.962933
1 12.115859 6.549528 2.373157
2 13.179718 7.733748 2.466439
1 14.224227 6.058675 3.982852
2 12.641852 8.516833 3.351788
1 12.367986 6.599307 6.616291
1 11.572641 9.095463 6.422893
1 12.946065 9.447975 9.002078
2 13.208181 8.507573 11.210307
2 14.264752 7.162296 12.429324
2 10.242496 11.158949 15.125776
1 12.017983 7.686320 1.413738
2 12.663012 8.460915 1.813080
1 11.862108 7.490090 2.637054
1 13.626418 8.482752 5.128254
1 13.550772 9.481872 5.744144
2 14.337052 9.508022 6.567909
2 12.471039 10.304037 8.832214
1 13.837319 10.231054 10.076433
2 10.565954 10.428802 12.780626
2 13.375679 10.253636 11.237638
1 13.253432 10.351105 3.150765
1 13.999340 12.622964 1.829339
1 13.818847 9.292826 4.149171
1 14.512836 9.850348 4.798963
1 13.143920 10.495777 5.504098
1 14.666558 12.791593 7.547852
2 12.458364 10.631847 6.852252
1 12.716632 10.796108 10.446040
1 10.932879 10.988990 11.525450
1 13.403705 11.505654 13.211904
1 13.484067 12.373987 -0.969393
1 14.231236 10.047053 2.484704
1 12.452193 12.800088 3.320644
1 13.150340 12.135114 5.265173
2 15.386213 11.664089 7.277204
2 12.906729 14.348609 7.132969
1 13.744338 14.144392 10.901271
2 12.234712 14.225316 8.903436
2 12.069556 13.330254 12.392698
1 12.579198 11.686398 12.494405
1 10.655908 14.829982 -0.766966
2 13.606799 15.884336 1.447258
2 13.127717 11.664473 4.125595
1 12.275675 13.439947 5.365420
1 13.119082 13.228767 3.988959
2 12.380051 1.764809 8.225050
1 12.584040 -0.266611 6.550813
1 12.056233 0.892324 11.184070
2 13.005203 0.895791 11.707288
1 12.396786 0.534628 13.822286
1 13.158426 -0.388538 1.036335
2 13.302086 0.879271 0.962959
2 12.147433 0.277792 3.365744
2 12.683255 0.585730 6.052661
1 12.301674 1.496267 6.466912
2 13.574985 1.699133 5.660068
2 13.922652 2.605793 8.058579
2 13.014624 0.318126 9.791946
1 14.222762 1.338120 11.402757
2 12.734816 2.869769 13.021940
2 14.083510 1.645196 -0.424064
1 14.239396 2.069936 2.313449
1 12.012908 2.986944 2.427336
2 12.155818 3.770867 4.302327
2 14.641849 2.689693 7.226735
1 12.861867 3.588102 8.160030
2 12.409635 4.817564 8.030614
2 16.050792 2.651636 10.006330
2 13.165104 2.678974 9.998651
2 13.816483 3.665372 12.438043
1 14.514208 4.721823 1.061276
2 12.783076 4.593551 2.050143
2 13.273260 4.063182 4.339279
1 12.566751 4.198920 5.437524
1 12.756947 3.550102 6.107233
1 11.692430 3.921771 10.140793
2 14.749848 4.546435 9.921594
2 13.933310 3.424732 11.205691
1 11.770922 6.333817 10.504970
2 13.700033 5.098558 13.696081
2 13.058120 3.793486 -0.041905
2 12.463208 4.462537 3.558958
2 12.637926 5.994000 4.235102
2 12.123253 5.074901 4.696286
1 12.406936 5.936469 5.561022
2 13.385390 7.723660 6.412863
2 13.109289 7.071119 8.351604
2 13.535920 7.767930 9.813149
1 12.058086 6.750327 12.482331
1 13.556904 6.165084 12.851726
1 12.891871 4.297051 0.868763
2 13.678873 5.446201 1.285491
1 13.880738 7.601500 1.579601
1 13.969801 5.024135 5.202371
1 13.403211 6.226492 6.508934
2 -0.127475 8.822046 8.373092
1 0.897249 7.291531 8.307004
2 0.864680 8.184791 9.077518
1 -1.977343 8.332474 10.801057
2 1.001792 4.866783 10.993056
1 -0.443366 7.993863 0.832841
2 1.660348 7.442663 1.519837
2 0.754234 6.318845 2.875374
1 -1.297398 7.850131 6.126984
2 -0.727808 8.775437 6.638259
2 0.103572 9.113877 7.345716
1 2.828740 9.774739 9.892720
2 1.903700 9.330562 11.536830
2 -0.971070 9.244740 10.639341
1 1.256327 6.501954 11.639549
2 0.799322 8.202129 0.837103
1 -0.253074 6.538027 2.289875
2 1.268531 9.690203 3.216392
2 -0.611843 9.426198 2.352341
2 -2.814965 9.789758 6.259635
1 0.761680 6.917878 6.426533
2 0.948590 9.526099 7.877203
1 0.417273 9.611478 8.972391
1 1.931979 10.611534 11.637961
1 0.716989 10.784186 14.670478
2 0.975300 10.110717 0.147036
1 2.203794 10.034884 2.157664
2 2.304726 12.503807 -0.330026
1 0.353227 11.321115 5.441181
2 1.144659 11.455685 6.371731
1 0.443156 11.987635 8.243217
2 0.619905 10.502615 8.262986
1 -0.063777 10.572388 9.100653
2 -0.117220 12.568046 10.904459
2 1.304750 12.300987 14.516601
1 -1.048953 10.221038 -1.032737
1 0.920857 12.818655 3.024412
2 -0.538321 11.928191 3.027922
1 3.149043 12.203310 3.280907
1 1.766111 13.183358 5.688341
1 0.886204 14.380306 6.638005
2 0.726387 12.965721 9.608611
1 0.879428 13.143262 10.671412
1 -0.704528 12.825255 11.780809
1 0.030956 14.148727 12.714966
2 0.738450 13.930073 1.451975
1 -0.176454 13.759105 2.949409
2 1.387691 13.308856 3.763260
1 0.733340 12.484067 5.377383
1 2.288593 11.988069 6.069295
2 -0.075362 1.618868 8.569141
1 0.329508 -0.016134 11.713712
2 0.613912 1.795238 10.238458
2 1.871598 1.889300 12.097723
2 2.888882 1.306088 13.197747
2 1.064028 0.985724 2.469858
2 0.747201 1.145420 0.620766
2 -0.257792 2.178136 3.182283
2 2.184531 0.480015 3.597110
2 -0.189349 -0.542238 5.938800
1 1.512837 3.799644 7.670664
1 1.114830 3.308419 8.465872
1 -0.119099 0.183928 8.755996
2 0.375909 0.787034 9.890083
1 0.065330 2.233797 12.233916
2 2.266330 2.815185 1.396466
2 1.142425 2.251750 0.320861
2 0.657766 0.747104 3.481153
2 1.127927 3.204948 4.295891
2 0.761326 2.401562 5.387634
1 2.657459 3.853407 7.355282
2 -1.027233 1.331732 9.895774
1 0.053021 3.553986 9.239865
2 -0.170846 2.149726 10.932161
1 0.861405 2.797117 12.887569
1 0.741331 4.072894 0.072169
1 -0.733817 2.920628 0.804017
1 -0.410073 2.917562 2.187825
1 1.251218 4.682712 3.734625
1 2.449295 4.352766 5.918971
2 0.659716 6.327117 7.397771
1 0.420498 4.928412 8.701063
2 1.441490 6.889837 9.202261
2 1.484111 3.711158 12.815579
1 1.758321 6.061410 13.502936
1 2.185490 4.677476 0.778239
1 1.411935 3.364805 1.426730
1 0.118851 5.139956 3.724457
2 -0.392767 6.347480 3.303624
2 1.154615 5.097994 5.980894
2 1.391200 5.397196 8.586109
1 -0.717982 5.676291 9.274598
2 1.975093 7.335283 11.148536
1 0.234092 7.121754 10.513187
1 -1.446243 5.467123 11.293542
1 0.920702 5.830829 0.528436
2 1.550399 7.112850 2.651469
1 0.006905 5.472978 2.676473
2 1.892365 5.689525 4.878620
2 0.604511 6.239710 5.371763
1 1.690608 8.570677 8.273396
2 2.506743 7.572186 7.437201
1 1.364339 6.731342 10.359123
2 2.804013 8.325787 11.278881
2 2.804157 7.579233 12.303396
2 1.455596 7.241683 0.213565
2 0.821678 6.807413 1.065762
2 1.681323 7.607758 4.340800
2 0.924076 8.603585 5.776913
2 1.750223 6.632427 7.478600
1 2.538538 9.752460 7.658187
2 1.925400 8.548029 9.837875
2 3.033100 7.993101 10.166137
2 2.994953 9.968457 11.398466
2 0.384964 9.287127 10.704071
1 1.884487 8.848450 2.553484
1 2.410303 7.989565 3.355775
2 3.630672 6.475549 3.397477
2 0.469864 8.607202 2.853298
2 1.576014 10.356643 6.571390
2 3.136655 11.879516 9.833984
1 2.110611 10.989837 8.548093
2 1.239642 10.693964 10.521549
2 0.958171 10.094485 11.513492
1 1.498038 11.247096 14.195616
1 2.232646 9.691125 -0.012085
1 2.374161 9.522987 1.157417
2 3.353324 9.424151 4.618438
2 5.161094 11.010833 3.983841
2 2.651026 10.889734 6.707274
1 1.801504 9.223216 6.582348
2 3.066357 10.782972 8.012494
2 1.183494 11.894714 10.228980
2 2.871976 10.599934 13.531801
1 3.499479 12.556286 13.813042
2 2.185475 10.694801 1.096185
1 2.965931 12.077979 2.236572
1 2.248545 10.887019 2.997199
2 4.063342 11.434869 4.398308
1 0.640117 10.260367 5.686676
1 1.810957 13.219285 9.615623
1 0.127407 13.047846 6.991706
1 0.950338 14.872530 8.987098
2 2.546217 12.922945 11.361417
1 2.926329 11.573974 13.104683
2 0.670453 13.853568 -0.144759
2 0.486696 13.779820 4.612972
1 2.001367 11.754744 2.213846
1 0.950904 13.914517 5.627530
2 2.580354 12.707487 4.297805
1 2.124092 0.947854 7.132074
2 3.111319 1.666821 9.533474
1 2.531001 0.597992 11.232270
2 1.621697 1.348853 10.663520
2 1.466274 0.805867 11.881426
1 2.225817 2.366947 0.053328
1 1.090282 -0.249718 2.215896
2 1.922753 -1.315852 3.188128
2 1.196189 1.881796 3.191586
1 2.078838 0.335167 6.310746
1 1.355223 1.690821 6.160683
2 2.425135 0.647312 9.253442
1 3.389570 2.031077 10.542377
2 3.767582 4.673842 11.940352
2 3.483855 2.728731 12.775517
1 2.706926 1.711805 1.548180
2 2.186033 0.890922 2.524099
1 2.716418 3.445963 4.099104
2 1.644116 1.317599 4.516114
1 3.319709 2.198214 5.975667
2 1.334712 1.568682 7.575140
1 1.770101 4.184246 9.038370
2 2.816441 3.749118 8.935285
1 2.639295 1.798338 11.383217
2 1.639020 3.290729 13.919901
1 3.833558 3.829699 -0.513608
2 4.542022 1.961038 4.047539
2 2.446143 2.405885 2.697088
2 3.286311 3.102559 3.095611
1 2.393334 2.854553 4.962522
1 2.585669 5.218503 6.493287
1 1.632816 4.836562 7.720807
1 1.120594 2.934959 10.200530
1 1.453075 2.758411 11.240666
2 2.356751 6.824972 12.943583
2 2.312654 3.952444 -0.067227
2 1.228968 5.700810 1.967102
1 2.424205 3.900842 3.321471
1 2.453179 5.284738 3.217835
2 2.123968 4.095975 4.737050
2 0.287636 7.957867 7.763486
1 2.289148 6.743010 8.472562
1 1.994588 5.698539 10.070231
1 0.808177 5.711217 9.539471
1 2.130110 8.424038 14.343507
1 2.703893 5.592149 0.661608
2 2.734654 7.561076 1.377628
2 3.027500 7.308345 3.926975
2 2.928309 7.018805 2.684255
1 1.760229 5.611884 7.049341
2 3.082445 7.418332 8.900226
1 1.277888 7.986462 6.509103
1 3.627117 7.127926 10.281841
2 3.207863 6.578426 11.883888
1 4.147805 7.511222 11.337368
1 2.242769 6.453680 2.156891
1 4.528092 8.239986 1.261053
2 3.254596 6.154344 4.377893
2 3.623758 6.940334 5.084659
1 3.457690 8.199459 5.338525
2 4.123095 9.333581 8.525353
2 4.785269 7.341313 9.984213
2 3.612123 10.060229 9.010388
1 3.801970 8.346480 10.867397
1 2.118970 8.462752 12.672334
2 3.968554 8.892431 0.135518
2 3.153253 10.557899 2.760903
1 3.691995 9.492822 2.502480
1 2.585178 10.478701 4.603790
1 2.600274 8.627343 6.681060
1 3.964569 11.395204 7.327700
2 2.855416 8.604239 7.926025
1 3.031291 10.724649 9.916460
2 3.460202 12.710615 10.548631
2 1.480347 9.960140 12.485735
2 4.137398 10.991744 2.444055
1 6.019082 9.316227 2.551822
1 2.358919 8.130812 5.784325
1 4.905425 9.559370 4.536268
1 4.353612 10.572446 5.091849
1 3.709615 10.428031 5.914158
1 2.068662 9.097322 8.932346
2 1.781366 10.202402 9.593703
2 4.654786 12.373200 8.215958
1 3.519749 8.685296 12.203080
2 2.846219 13.441596 0.041663
1 4.090384 12.437995 2.773427
2 3.110510 10.822796 1.568165
1 4.540948 9.845450 3.397699
1 4.282937 12.434422 5.710460
1 1.931253 13.433152 7.268626
1 2.273531 12.562631 10.248318
1 1.386856 11.912211 8.899207
1 3.285201 13.472557 12.015970
1 3.857646 12.503772 12.596367
1 4.367470 11.697577 0.144454
1 3.068657 14.392213 1.642810
1 3.484878 12.265229 4.775344
1 2.720775 13.077704 2.919950
2 2.746958 12.965021 6.384628
1 2.771439 -0.264270 7.987894
2 3.333808 0.192675 8.898378
1 4.172228 0.146650 10.834571
2 4.949040 -0.799573 10.782286
2 3.643287 1.020062 11.231427
1 4.559953 0.776782 -1.801908
2 2.876989 -0.921013 1.218804
2 3.707290 0.451002 2.992102
2 3.339649 -0.207632 4.526010
2 3.230984 0.475522 5.991395
2 4.759216 2.615230 5.123363
2 4.626776 3.445592 7.143205
2 3.868675 2.909967 9.394679
2 4.610469 2.387394 10.674288
1 2.054510 4.497550 12.392472
2 1.867899 0.873448 0.842170
1 4.220624 1.323579 0.999978
2 5.103628 2.901629 1.951996
2 3.548059 2.528267 4.399756
1 5.735939 1.704098 5.809205
2 5.180108 4.760536 6.407667
1 2.391407 4.919325 9.685720
1 5.982880 4.319919 10.975850
2 2.666524 3.088689 11.025179
1 3.728969 2.260386 13.953943
2 4.680446 3.751101 0.897880
2 2.041261 3.683507 2.250045
2 3.057137 4.440223 2.329962
1 3.685951 2.132392 3.212454
1 3.963686 3.946976 6.267889
1 3.831146 5.870333 6.946975
1 3.572385 5.990532 8.759315
1 4.015212 5.018252 8.955821
1 3.244702 4.477266 10.518030
1 3.637168 3.133745 14.605411
1 4.484094 5.400006 1.458231
1 2.387039 5.141643 1.714756
1 1.948397 6.584362 1.000797
1 3.029330 4.816760 4.460593
2 3.499377 4.941585 5.818402
1 6.130098 6.068440 7.814808
2 4.111851 7.199249 8.348002
1 2.608955 4.927753 8.659739
2 3.490703 5.384511 11.166459
2 2.951212 6.619605 14.096578
1 3.803316 5.537835 0.798356
2 3.596218 6.444564 1.550848
1 3.897947 5.312880 3.978623
2 2.432676 6.856801 5.079008
1 2.583305 6.064139 7.572682
1 4.960374 6.949936 5.845079
2 4.345302 8.373020 6.883784
1 5.584448 8.137600 9.348752
1 5.976850 6.974544 11.391899
1 5.025261 6.511593 12.055419
1 5.716651 7.593993 2.880976
1 5.166185 9.084643 3.124529
2 4.072726 8.077782 4.271223
1 3.520226 6.055099 5.653687
2 4.888532 6.100647 7.239341
2 4.153691 9.435071 5.700656
2 4.350345 8.029896 9.093247
2 3.317352 8.918422 9.223470
2 4.413114 9.762472 11.738743
1 5.040727 7.775247 12.982135
2 3.044273 8.956696 1.698653
1 4.686157 9.911510 1.819557
2 2.753951 9.344958 3.562179
2 5.574584 7.732335 4.613395
2 5.570723 8.968876 7.443962
2 3.537531 9.055574 7.167652
1 5.255255 10.487573 8.080530
2 4.940915 9.974237 9.226627
1 3.885735 10.054974 10.603882
1 5.751103 9.962940 12.213739
1 6.499990 9.883375 0.293992
2 4.924631 8.216820 2.600978
2 4.483433 11.255726 1.533743
2 5.772102 10.178710 4.174703
2 6.698206 10.269555 6.050598
1 7.054479 11.821058 6.105153
2 4.468549 11.256729 8.455551
1 4.129386 11.675888 10.714204
2 5.445255 10.488608 11.201508
2 4.933281 10.987786 12.008784
2 5.361934 9.845428 -0.128398
2 5.270472 10.598877 2.294378
2 5.168226 11.455526 4.990283
1 5.758781 12.847413 4.109847
2 3.852559 12.671536 7.146629
2 5.128329 12.614543 7.064196
1 5.306842 11.501607 7.541597
1 2.088014 11.575489 10.925193
2 5.180990 12.107987 12.731067
1 6.277378 13.210033 12.848591
1 5.892107 12.628533 1.037670
2 4.627114 13.710928 1.602789
2 3.753880 13.499498 0.708143
1 4.596651 12.550104 4.377930
2 4.170971 11.523122 6.317590
1 5.593949 -0.223203 8.246834
1 5.500309 1.086498 9.814966
1 5.287508 -0.821143 8.954870
2 5.701020 -0.534650 11.662556
2 5.131038 1.253587 12.572455
2 5.195803 1.990074 0.224044
1 4.145051 -0.176445 3.815478
1 4.817965 0.440827 2.683898
1 4.823055 1.400840 4.981164
2 5.445805 -0.912492 5.134048
1 5.524811 2.704587 7.777730
1 6.148253 1.752799 7.924451
2 4.304335 0.662957 7.947170
2 4.171941 3.001424 11.513344
1 4.657540 2.453387 12.836344
2 5.943178 0.863264 0.890994
2 3.177048 1.397233 2.627997
2 3.866783 3.620542 4.544081
2 2.727360 1.657130 4.325598
2 3.465647 3.059576 6.620443
2 6.035439 3.519165 6.975002
2 3.658576 3.135498 10.634726
1 3.748372 4.129408 9.771409
2 6.674844 2.964071 12.195949
1 4.668237 3.587115 13.539440
2 4.484426 2.190898 1.398996
1 3.548565 3.378978 2.093117
2 5.737482 4.263094 4.510621
2 4.908660 3.663656 5.294013
1 3.326092 3.545218 5.469587
2 5.151273 5.491854 9.153521
2 3.735132 4.923271 7.881094
1 5.028334 4.082733 10.932465
1 4.543428 3.647141 12.131079
1 4.139738 6.382644 13.016209
2 3.683387 4.436317 1.178082
2 3.495286 5.355139 1.830064
1 3.967899 5.150415 3.028910
1 4.775591 4.763058 3.718060
2 4.352171 4.917638 4.853534
2 3.367863 7.097061 7.141163
2 5.129506 6.744374 9.009764
1 4.219607 6.426573 9.768299
2 5.011858 5.934780 13.320700
1 4.540722 6.533502 14.139933
1 4.742099 6.718625 1.711672
2 4.631263 5.835042 3.284327
2 3.887807 7.464705 2.217521
2 4.644725 7.100784 3.284114
1 4.660284 6.787025 4.636769
1 6.894726 7.856804 8.204725
1 5.358172 6.854331 7.840499
2 5.988686 6.608486 10.343451
2 6.357617 6.637279 12.424513
1 6.302473 9.170107 12.902214
2 5.945746 7.434569 0.311033
2 9.127741 6.989909 3.249269
2 4.923425 5.618357 4.307539
2 5.338601 8.427435 6.234889
2 6.247407 6.974061 5.793180
1 4.954922 8.377587 5.067077
2 6.089133 8.471217 8.396838
2 5.590842 7.849819 10.904958
2 5.263273 9.249693 10.269609
1 3.454618 10.676394 12.552864
2 5.650908 7.027243 1.342993
2 6.593252 8.146706 2.171977
1 5.706223 8.844513 4.371237
2 6.979388 8.836807 4.395189
2 7.048092 9.970290 4.563644
1 6.604548 9.371559 6.685687
1 7.377677 9.644413 7.874285
2 5.770948 10.505781 9.588360
2 6.576625 10.802341 11.402283
2 6.024170 11.096416 12.216767
2 6.373432 8.473319 0.453303
1 7.208813 12.001996 0.569659
2 7.281591 11.381828 3.867105
1 5.450149 9.470022 5.598546
1 4.788942 10.483839 6.079107
1 6.161213 12.977420 7.326615
2 6.671837 11.391438 9.229341
2 7.912759 10.830348 10.467033
1 7.145268 12.055989 13.103710
2 3.681879 14.351854 12.596860
1 6.159832 11.901932 -0.313181
1 4.904255 12.547988 1.901404
2 7.110687 12.189712 5.133384
1 6.904970 12.519727 3.486705
1 6.100229 11.932620 6.712323
2 7.243581 14.329773 9.325779
1 5.906372 12.375786 10.016129
1 4.625754 14.041463 9.914350
1 6.225203 13.635933 11.016754
1 6.985032 13.311620 11.755835
2 5.467361 12.861050 0.035219
1 5.926850 14.287897 1.956123
1 5.357969 13.059552 2.854871
2 4.618372 13.911127 4.972511
1 4.177170 13.284034 6.323087
1 7.748414 1.271081 7.443995
2 6.337079 -1.271363 8.675444
1 8.637626 0.970148 10.085557
1 5.815173 2.048797 11.935641
1 6.937493 1.476994 14.559792
2 5.773524 0.892327 -0.187198
2 8.365124 0.551588 1.578575
2 6.887931 0.895291 3.144214
2 6.197820 0.509940 4.968579
2 5.502326 0.077642 6.619356
1 4.222671 1.411027 6.625925
2 5.623276 1.251920 7.097083
2 4.863629 4.316200 8.831201
2 3.969277 1.870690 11.686569
1 6.467048 1.592423 12.989273
2 5.552751 3.074653 0.514714
1 6.785087 1.681762 2.409346
1 5.760492 3.001820 4.376681
2 5.281725 2.601466 6.348153
1 6.236173 2.842101 6.152522
2 6.330840 3.991101 5.776822
2 6.271809 3.561972 8.441363
2 5.104970 3.695168 9.791217
2 5.391231 4.910285 10.100052
1 8.141810 4.167907 11.308189
1 6.003540 3.996868 0.864024
2 6.282440 2.479833 1.549465
1 6.777964 3.501174 4.297132
2 7.878890 3.738061 4.151505
1 5.758596 4.839039 5.465063
2 5.970356 5.025671 7.415870
1 6.989787 4.365775 7.645696
2 6.323134 5.940666 9.494503
1 7.314930 4.170523 12.098975
2 5.039385 4.580445 12.795670
1 5.307128 4.746271 1.312541
1 7.346902 4.405943 1.836204
1 4.967154 5.009087 2.508381
2 7.352687 4.178362 5.025817
1 6.500807 4.979120 6.406792
1 6.884691 6.833687 7.377207
1 4.599390 6.217753 8.305712
1 8.338744 6.842589 8.829918
2 2.655057 6.730115 10.483090
1 5.621644 6.365701 13.986677
1 6.179656 5.452041 0.438136
1 6.791705 6.439465 0.753345
2 6.714201 7.825538 3.238802
1 6.301246 6.484484 2.304346
1 5.714004 5.860764 6.555499
