3000
Lattice="13.57208808297453 0.0 0.0 0.0 13.57208808297453 0.0 0.0 0.0 13.57208808297453" Properties=molecule:I:1:species:S:1:pos:R:3 Time=100
1 1 7.752530 6.439119 5.544141
1 2 8.553459 6.413721 5.852732
1 3 8.371388 5.863330 5.067353
2 1 8.772256 8.705862 2.662588
2 2 9.227526 9.425911 2.348128
2 3 9.108483 8.791102 1.610244
3 1 7.754405 9.193679 5.226883
3 2 7.414299 9.433532 5.948297
3 3 8.115037 8.714767 5.876142
4 1 3.568273 9.129274 9.744373
4 2 3.610567 9.765454 9.180225
4 3 3.687221 8.827908 8.890412
5 1 5.032597 4.015463 7.508397
5 2 5.522744 3.343628 7.510418
5 3 4.529922 3.225529 7.450861
6 1 1.435323 4.559448 2.951177
6 2 2.131922 3.956631 3.170525
6 3 1.317531 3.674326 2.698466
7 1 6.613545 6.895479 1.628027
7 2 5.884351 7.338382 1.353160
7 3 5.868914 6.324736 1.521835
8 1 6.802741 3.425356 7.885997
8 2 7.499730 3.115295 8.475928
8 3 6.525258 2.972318 8.682255
9 1 5.752363 4.649597 5.979690
9 2 5.714111 5.444563 5.617099
9 3 4.974290 4.810402 5.508792
10 1 10.892745 3.927649 6.970127
10 2 10.847924 3.666326 7.796313
10 3 10.478905 3.136954 7.057904
11 1 4.982655 2.502461 8.929907
11 2 4.426838 2.211571 9.570432
11 3 4.211797 1.858837 8.742608
12 1 5.040656 12.925917 1.155353
12 2 5.694732 13.593185 1.476802
12 3 5.704634 13.443117 0.554306
13 1 9.133041 6.291838 9.098025
13 2 8.846434 6.301804 9.981745
13 3 8.731086 5.493460 9.278819
14 1 2.790365 6.859111 5.761843
14 2 2.449958 7.758236 5.830882
14 3 2.047231 7.038309 5.160643
15 1 10.813601 2.322982 4.791006
15 2 11.517306 2.630317 4.358469
15 3 11.331112 1.675468 4.282286
16 1 0.657502 5.147336 10.813510
16 2 0.789151 4.790252 9.942361
16 3 0.835903 4.107587 10.657971
17 1 10.346766 8.900303 3.920663
17 2 11.137635 8.464462 3.675962
17 3 10.335926 7.982698 4.135721
18 1 4.682493 7.083583 8.904557
18 2 4.881274 7.732078 8.298878
18 3 5.294483 6.853534 8.233288
19 1 4.095276 1.998254 0.482691
19 2 4.233046 1.039144 0.627140
19 3 4.960578 1.639117 0.168852
20 1 10.487454 12.005364 2.505799
20 2 11.131598 12.627490 2.235861
20 3 10.378388 12.607289 1.665084
21 1 8.718359 3.240895 5.212143
21 2 9.318636 3.566161 4.701041
21 3 8.573364 3.010969 4.316041
22 1 11.820859 9.938820 10.132150
22 2 12.310401 9.616354 9.488462
22 3 11.422241 9.195991 9.719467
23 1 4.994326 0.528732 2.136055
23 2 5.232143 0.918791 2.981933
23 3 5.675810 0.154439 2.569535
24 1 13.330087 5.134001 10.558447
24 2 13.566048 4.580821 11.204474
24 3 12.601189 4.652799 11.011400
25 1 8.647646 10.618963 0.916225
25 2 8.531355 10.341209 1.793171
25 3 8.994243 9.752216 1.166408
26 1 9.822836 1.543716 7.865710
26 2 10.006561 1.552564 8.773141
26 3 9.303736 0.919603 8.304717
27 1 12.814521 6.524504 12.849100
27 2 12.009186 6.588116 13.175876
27 3 12.153229 5.798847 12.458135
28 1 12.682560 9.562657 6.002725
28 2 13.003868 10.411168 5.785370
28 3 12.520190 10.202294 6.604582
29 1 10.567840 8.401880 5.173363
29 2 9.967913 8.946440 5.590488
29 3 9.769116 8.545596 4.687371
30 1 0.572040 9.559646 7.624785
30 2 1.362367 9.867366 7.816644
30 3 1.202604 9.013497 7.265442
31 1 4.448861 7.563679 12.157147
31 2 4.123996 6.749671 12.078865
31 3 4.081588 7.302851 11.270829
32 1 6.482047 0.944458 6.532960
32 2 6.803058 1.703666 6.151427
32 3 6.276968 1.051760 5.629450
33 1 13.312422 10.293927 0.539556
33 2 0.422479 10.706764 -0.006146
33 3 13.146715 10.306095 13.217798
34 1 3.564284 4.213175 12.198938
34 2 4.027114 4.398107 11.285954
34 3 3.359824 3.714602 11.284149
35 1 4.329783 8.480363 9.984476
35 2 4.493753 9.396601 10.032909
35 3 4.999273 8.823186 9.377625
36 1 6.704361 1.921235 10.367409
36 2 7.131236 2.661355 10.599021
36 3 6.414198 2.694341 9.926596
37 1 3.877425 1.457213 7.155627
37 2 3.915273 1.139923 7.952172
37 3 3.422433 0.674498 7.264446
38 1 10.290594 12.518377 9.686441
38 2 11.170692 12.761538 9.674812
38 3 10.968701 11.826459 9.689594
39 1 8.731496 11.410089 11.877296
39 2 8.714762 10.612579 12.228329
39 3 7.994179 10.815331 11.624809
40 1 8.089072 4.798472 5.044960
40 2 8.540625 4.087074 4.694933
40 3 7.761076 3.885014 5.201676
41 1 8.307943 4.230869 3.635226
41 2 8.040637 4.964425 3.132118
41 3 7.422771 4.118803 3.178617
42 1 5.985384 4.265124 7.809174
42 2 5.232668 4.309230 8.360701
42 3 5.317143 4.979535 7.720195
43 1 4.756423 13.373371 2.764960
43 2 5.211455 12.687185 3.203675
43 3 4.240239 12.644299 2.834837
44 1 9.003826 3.382368 12.689847
44 2 9.222910 4.211471 12.558214
44 3 8.227383 3.829887 12.502186
45 1 9.642183 6.331639 6.387226
45 2 9.383012 6.172327 7.205055
45 3 9.270936 5.407095 6.591502
46 1 1.985092 11.720809 1.210097
46 2 2.493344 11.083888 0.955341
46 3 1.441678 11.291986 0.624100
47 1 12.749277 3.676257 11.276474
47 2 12.142153 4.240011 11.830331
47 3 12.530360 3.375895 12.100426
48 1 8.111165 5.050235 10.768247
48 2 8.881535 5.161980 10.284018
48 3 8.257505 4.573265 9.874171
49 1 5.732882 3.016951 9.302201
49 2 5.461343 3.844927 9.226895
49 3 5.350498 3.252142 8.492257
50 1 10.663319 1.537196 7.727011
50 2 11.089514 1.181104 7.079466
50 3 10.161659 0.856493 7.251958
51 1 7.144379 4.029382 13.468738
51 2 7.074338 3.779968 0.748639
51 3 6.315126 4.363622 0.414609
52 1 3.164163 2.150386 6.832304
52 2 2.754174 2.635442 7.450568
52 3 3.079370 1.647382 7.643779
53 1 2.773106 3.032729 13.400404
53 2 2.193487 3.632058 0.022118
53 3 2.124590 3.091079 12.771762
54 1 13.610392 5.971559 0.751527
54 2 0.881805 6.129425 0.378339
54 3 0.048554 6.495131 13.516907
55 1 10.364249 7.043061 0.289421
55 2 10.747254 6.386974 0.690866
55 3 9.753688 6.543137 0.911496
56 1 5.385194 3.818629 5.844595
56 2 5.504130 4.113701 6.700151
56 3 5.037269 3.261619 6.490387
57 1 5.194436 0.528758 9.051057
57 2 5.440765 13.464118 9.666814
57 3 5.510014 13.332765 8.614395
58 1 1.498398 11.095087 13.190133
58 2 2.005379 11.707971 12.772288
58 3 2.037861 10.783330 12.494492
59 1 9.148310 11.402155 3.352913
59 2 8.491253 11.213996 3.978613
59 3 9.386389 10.748684 3.976260
60 1 0.099330 8.871716 10.848781
60 2 0.128252 9.475272 10.203648
60 3 12.824846 9.189868 10.426013
61 1 2.332442 1.808666 11.617369
61 2 2.568582 2.182013 12.468914
61 3 2.053379 1.257893 12.301854
62 1 8.414159 11.664611 8.444103
62 2 8.977316 11.374310 8.964102
62 3 8.082868 10.920384 9.072030
63 1 9.453177 2.866110 2.995216
63 2 10.152419 3.301870 3.204717
63 3 10.230590 2.390527 2.850032
64 1 7.364632 6.773053 1.040197
64 2 8.213378 6.579822 0.993236
64 3 7.934542 7.545933 0.991547
65 1 0.028230 5.894690 4.083801
65 2 13.153652 6.493494 4.566326
65 3 13.266589 5.567794 4.831465
66 1 9.034865 1.981715 2.423352
66 2 9.172128 1.599874 3.193429
66 3 9.851819 1.509787 2.315561
67 1 12.065176 6.305572 10.718323
67 2 12.217800 5.567294 11.215783
67 3 12.399664 5.652453 10.186024
68 1 10.042866 9.443462 10.263221
68 2 10.862319 9.402951 10.572762
68 3 10.310183 8.534247 10.274321
69 1 7.347081 10.131296 9.527097
69 2 7.840893 9.358913 10.050636
69 3 6.907777 9.250456 9.684341
70 1 10.562212 13.524517 5.366210
70 2 11.204847 13.421129 4.761188
70 3 10.264599 13.126067 4.546258
71 1 10.979332 11.999767 8.550051
71 2 11.663419 12.252214 8.088321
71 3 10.736035 12.355147 7.755805
72 1 5.583247 5.044149 3.165709
72 2 5.328324 5.901723 3.239207
72 3 4.803067 5.223113 2.720102
73 1 5.786388 5.598003 9.315494
73 2 5.920976 5.401305 10.203324
73 3 5.494247 4.698318 9.601638
74 1 9.873661 11.178351 6.504565
74 2 9.997014 10.356343 6.805788
74 3 9.125392 10.532568 6.467953
75 1 8.331600 0.856936 1.126819
75 2 7.878535 0.701617 1.974513
75 3 7.493523 1.199840 1.165450
76 1 11.403177 8.887281 7.202649
76 2 11.749051 9.676927 7.152641
76 3 11.749310 8.880779 6.360511
77 1 11.420260 2.521091 5.538734
77 2 10.941911 2.564469 6.288565
77 3 10.607099 2.992197 5.456502
78 1 10.338727 1.231156 6.330921
78 2 10.909096 0.896896 5.561206
78 3 10.325565 0.251535 6.242303
79 1 7.497323 11.786581 1.462007
79 2 7.629786 11.262946 2.230410
79 3 6.868883 11.103566 1.546386
80 1 7.758283 1.878964 2.827071
80 2 7.576861 2.283874 3.622407
80 3 7.000145 2.532358 2.773116
81 1 6.793073 11.130281 3.710137
81 2 7.643011 11.035986 3.333764
81 3 6.792619 11.150098 2.729231
82 1 9.157724 0.697857 0.862839
82 2 9.183382 1.431831 0.317557
82 3 8.778023 0.617417 0.021917
83 1 4.069515 11.661183 13.568755
83 2 4.874837 11.651225 13.253046
83 3 4.558482 10.846136 -0.023171
84 1 5.523335 7.131905 5.588098
84 2 5.318719 7.977146 5.520328
84 3 4.499884 7.458607 5.355871
85 1 1.649682 10.983483 4.618542
85 2 2.565553 11.002913 4.588270
85 3 1.960102 11.090395 3.752997
86 1 12.315183 8.113929 0.995497
86 2 12.854801 8.064404 0.268478
86 3 12.384925 7.280795 0.439523
87 1 12.407378 10.125315 0.360464
87 2 12.642430 9.877381 1.143897
87 3 11.815454 9.533967 0.767011
88 1 4.302066 7.194458 2.535692
88 2 3.710609 7.733006 2.103673
88 3 3.395171 7.045302 2.667839
89 1 9.241151 0.840522 11.328594
89 2 9.812522 0.434899 11.893875
89 3 9.093272 13.421346 11.571381
90 1 8.204459 8.582152 0.997563
90 2 8.802961 8.994573 0.484637
90 3 8.252505 8.400932 0.079807
91 1 1.504899 1.492026 10.057713
91 2 2.296756 1.854128 10.355295
91 3 2.321905 1.651649 9.399558
92 1 7.150909 2.230428 8.636703
92 2 6.614313 1.879440 9.268175
92 3 6.403168 1.789340 8.293339
93 1 8.433998 8.522591 11.543637
93 2 7.640210 8.842736 11.876705
93 3 7.679212 8.038329 11.223998
94 1 8.258021 8.227947 5.007939
94 2 8.554930 7.665270 5.628513
94 3 7.817728 7.397003 5.085349
95 1 12.160472 8.564110 3.210559
95 2 12.999923 8.688627 3.907019
95 3 12.069680 8.114292 4.004734
96 1 6.419776 5.284415 0.657545
96 2 6.388766 5.294336 1.533509
96 3 5.505406 5.434346 0.951443
97 1 8.466330 0.160426 10.816190
97 2 8.382216 1.058349 10.816754
97 3 8.205477 0.531069 9.943190
98 1 4.612654 0.891054 3.795461
98 2 5.424240 0.943348 4.010079
98 3 5.140234 0.070869 3.662674
99 1 12.791269 12.297175 3.027363
99 2 13.165245 11.624883 2.581746
99 3 12.281289 11.542227 2.956847
100 1 11.833015 3.491656 11.260641
100 2 11.154573 3.736941 11.817914
100 3 10.934689 3.163229 11.050662
101 1 8.811674 12.193739 3.788940
101 2 9.531308 12.665696 4.054430
101 3 9.499762 12.302941 3.122055
102 1 5.858982 2.754836 12.964634
102 2 6.435304 3.319713 13.424070
102 3 6.653087 2.285710 13.266958
103 1 11.867237 13.318274 2.227593
103 2 12.067648 12.956355 3.009830
103 3 12.310140 12.494174 2.185870
104 1 11.090550 6.818533 13.432565
104 2 11.677204 6.372861 0.441804
104 3 11.204220 5.918367 13.200896
105 1 7.054596 9.891848 7.945932
105 2 7.589570 10.031396 8.570942
105 3 7.865080 9.978222 7.461643
106 1 2.980119 0.275572 1.972403
106 2 2.204112 0.625710 1.460209
106 3 2.513882 13.336297 1.278057
107 1 12.182814 8.163180 12.464772
107 2 12.776066 7.643859 13.032584
107 3 11.741423 7.496049 13.034438
108 1 4.089517 0.038314 3.493120
108 2 4.485535 0.071646 4.345055
108 3 4.376107 12.786629 3.866411
109 1 6.906947 10.441336 4.209228
109 2 7.150553 9.872804 4.939421
109 3 6.783957 9.538917 4.110370
110 1 2.821873 0.667406 12.253884
110 2 3.607428 1.182890 12.224732
110 3 2.920202 1.403591 12.855212
111 1 3.035635 5.818718 2.542501
111 2 3.557746 5.080355 2.449787
111 3 2.818886 5.168771 3.156885
112 1 6.439731 4.552682 9.786671
112 2 7.348671 4.247251 9.501089
112 3 6.584149 3.678839 9.416178
113 1 2.383547 12.403965 12.144096
113 2 2.579677 13.289663 12.310136
113 3 2.166392 13.055617 11.394864
114 1 6.201311 9.033313 0.957326
114 2 5.433212 9.142990 1.485991
114 3 5.446115 9.115822 0.515718
115 1 10.441146 7.784268 0.816693
115 2 11.030360 7.825570 1.531718
115 3 10.547479 7.024388 1.443940
116 1 4.042656 2.570661 6.145889
116 2 3.379257 3.062861 5.924035
116 3 3.373581 2.161632 5.564910
117 1 13.179658 6.117391 1.692501
117 2 12.775030 6.939775 1.979685
117 3 12.409715 6.511101 1.220046
118 1 4.747790 2.168564 4.778286
118 2 4.307768 1.847551 5.421346
118 3 4.614540 1.278781 4.647377
119 1 4.978912 1.663414 10.369525
119 2 5.644080 1.989756 9.838817
119 3 4.855167 1.354503 9.536156
120 1 11.896720 3.334262 9.697567
120 2 12.443967 3.559687 10.411114
120 3 11.864625 2.713636 10.525803
121 1 9.504324 3.461897 3.829895
121 2 10.170652 3.913988 4.204118
121 3 9.272018 4.310626 4.083522
122 1 10.952871 13.570071 12.147920
122 2 10.875529 12.757003 12.652040
122 3 10.864567 12.761265 11.523946
123 1 4.280308 0.564459 2.749511
123 2 4.091086 1.440307 3.014789
123 3 3.412554 0.895275 2.582045
124 1 7.589285 6.010276 2.791961
124 2 8.103008 5.525170 2.277216
124 3 7.116212 5.219791 2.648373
125 1 5.023445 5.773620 0.197285
125 2 5.002958 6.513817 13.300969
125 3 5.190647 5.734545 12.844714
126 1 4.637619 13.234067 9.010273
126 2 3.985431 12.524807 9.297162
126 3 4.640896 12.315203 8.629338
127 1 5.060316 8.017853 12.501065
127 2 5.683193 8.492822 12.048901
127 3 4.947838 8.060802 11.506192
128 1 9.542440 7.585216 8.423688
128 2 10.440411 7.991545 8.350752
128 3 10.254267 7.056159 8.641109
129 1 6.543801 10.847409 6.303808
129 2 6.831360 10.020679 6.515532
129 3 6.495851 10.294174 5.565586
130 1 2.055558 3.421565 2.116867
130 2 2.901687 3.605901 2.067289
130 3 2.310527 3.705194 1.221464
131 1 3.134428 12.677218 11.669274
131 2 4.111019 12.635123 11.663700
131 3 3.426759 11.820971 11.580608
132 1 10.085937 5.608287 7.554715
132 2 9.901007 6.386404 7.923324
132 3 10.381745 6.358191 7.033485
133 1 0.426170 13.038529 2.975229
133 2 1.094406 12.942928 3.544556
133 3 0.772159 12.099708 2.955522
134 1 4.508245 8.522220 8.474589
134 2 4.510938 9.470258 8.776860
134 3 4.575591 9.196609 7.819789
135 1 6.418020 8.774421 10.345670
135 2 6.718176 8.514457 11.240227
135 3 6.747222 7.847267 10.558679
136 1 10.336922 6.457227 9.358900
136 2 10.325910 6.360712 10.176913
136 3 9.640154 5.686886 9.706929
137 1 4.876382 4.003988 9.990356
137 2 5.544793 3.888427 10.488696
137 3 5.133857 3.044415 10.088541
138 1 1.073336 0.661540 7.223471
138 2 1.430157 -0.142476 7.478264
138 3 0.499503 13.554950 7.244675
139 1 0.523140 6.742247 9.896441
139 2 13.690187 7.406047 10.393367
139 3 13.073124 6.687254 10.045400
140 1 9.480352 5.333576 2.393869
140 2 10.299015 5.602075 2.230506
140 3 9.627518 5.485087 1.514075
141 1 0.579177 3.475800 11.533720
141 2 0.295200 3.198629 12.389690
141 3 13.440609 2.883343 11.491688
142 1 9.266273 8.103790 11.718508
142 2 9.163845 7.201067 11.897324
142 3 8.806774 7.655331 10.993356
143 1 9.362856 3.821088 2.895353
143 2 8.768666 3.487824 3.457085
143 3 8.455636 3.889522 2.687756
144 1 6.822709 4.006613 1.584164
144 2 6.464999 4.512823 2.176781
144 3 5.911835 4.453274 1.373540
145 1 6.595334 4.379162 12.717951
145 2 7.323254 4.836446 12.361639
145 3 6.373507 4.879368 11.999912
146 1 6.035273 12.594290 1.381842
146 2 6.287526 12.982019 2.128110
146 3 5.373856 12.762823 2.072573
147 1 9.158756 7.644256 4.956022
147 2 9.337759 7.054988 5.688012
147 3 8.649887 6.857192 5.012788
148 1 1.975448 2.664459 7.823167
148 2 1.872519 3.299148 8.472459
148 3 1.182646 3.145548 7.767529
149 1 0.392971 8.195819 11.820306
149 2 13.558478 8.999190 11.815032
149 3 13.073456 8.303571 12.218306
150 1 1.503333 0.745949 10.395731
150 2 1.631489 1.221458 11.201059
150 3 2.421244 0.758377 10.628732
151 1 6.321503 5.388202 3.941684
151 2 7.124659 5.370525 3.611487
151 3 6.458100 4.693058 3.364385
152 1 6.337579 12.997273 4.621557
152 2 6.759524 0.253305 4.982893
152 3 5.919880 0.249031 4.427628
153 1 2.413579 13.119286 0.034727
153 2 3.202957 13.178750 0.448079
153 3 2.569156 12.492669 0.745262
154 1 9.463179 11.337411 12.321653
154 2 8.938821 10.923187 13.085997
154 3 9.604888 11.684824 13.213042
155 1 1.849296 0.424984 2.308168
155 2 2.299959 13.253007 2.349243
155 3 1.539290 13.299947 1.722885
156 1 9.840547 3.004387 12.637828
156 2 10.114624 3.833396 12.412020
156 3 9.475653 3.322577 11.800131
157 1 3.475447 12.356895 8.435012
157 2 3.895218 12.430277 7.632057
157 3 3.730018 11.549217 7.952265
158 1 6.887257 0.698074 0.528003
158 2 6.179845 1.199206 0.235043
158 3 6.355951 0.234976 13.468646
159 1 5.995830 10.751102 1.573015
159 2 6.472316 10.688494 0.782979
159 3 5.862930 11.472202 0.985955
160 1 12.615355 0.276967 3.630216
160 2 13.354994 0.518865 3.262510
160 3 13.064637 13.289468 2.911904
161 1 4.070648 6.484931 9.157555
161 2 3.898955 6.096644 9.944415
161 3 3.113318 6.151346 9.244845
162 1 12.439162 5.357727 4.188306
162 2 13.215828 5.105788 3.860903
162 3 12.666681 5.612168 3.239894
163 1 5.402220 4.173882 0.553177
163 2 5.530132 3.406849 0.212329
163 3 5.696203 4.078369 13.114023
164 1 2.376232 7.241071 11.164749
164 2 3.144698 7.128357 10.675072
164 3 2.655195 7.913295 10.480788
165 1 0.065682 7.003165 2.122362
165 2 0.255282 7.660774 1.588236
165 3 0.009425 6.832869 1.207487
166 1 6.304272 12.104875 8.298994
166 2 6.706864 11.353450 7.869594
166 3 5.654281 11.440998 7.872281
167 1 5.864758 5.596180 4.713070
167 2 5.811913 6.261029 5.252254
167 3 4.924413 5.770344 5.019449
168 1 7.100619 8.257726 1.476341
168 2 6.978045 8.411150 2.326442
168 3 6.149515 8.349843 1.599819
169 1 9.824188 13.304718 3.472381
169 2 9.374059 0.195779 4.244701
169 3 8.869091 13.312622 3.502780
170 1 3.291745 10.754866 9.299624
170 2 2.834441 11.456551 9.484383
170 3 2.982432 11.265786 8.587906
171 1 8.281047 1.078991 8.357211
171 2 7.946582 0.494401 8.878752
171 3 7.431594 0.679841 8.070055
172 1 9.870354 12.792855 0.842237
172 2 9.371950 12.180648 1.284083
172 3 9.121381 12.359838 0.347257
173 1 0.936505 10.364583 0.769071
173 2 1.834204 10.329612 0.762241
173 3 1.373254 9.860144 1.408888
174 1 0.042620 2.492730 3.258804
174 2 0.838443 1.937698 3.239985
174 3 0.102074 1.755992 2.611591
175 1 0.940514 2.574350 2.016533
175 2 1.163796 3.395831 1.794884
175 3 1.718674 2.621227 1.561404
176 1 13.092134 12.574436 1.224506
176 2 0.072006 12.332650 0.543995
176 3 12.765345 12.715977 0.302862
177 1 8.447955 8.825382 9.479390
177 2 9.426949 8.750653 9.872279
177 3 9.059625 8.063591 9.342813
178 1 4.067459 3.101224 9.928327
178 2 3.354412 3.445588 9.526438
178 3 3.877104 2.824106 8.966782
179 1 0.809377 2.479566 0.138710
179 2 1.295342 1.966458 0.682707
179 3 0.657067 1.556470 0.033808
180 1 5.161682 6.106155 2.246713
180 2 5.107392 6.789672 2.849181
180 3 4.308615 6.228008 2.586404
181 1 9.404006 4.751924 9.305608
181 2 9.364374 4.184850 9.987576
181 3 8.848637 3.905684 9.187012
182 1 11.556285 4.873405 6.022988
182 2 12.097988 5.552631 6.002114
182 3 11.970432 4.969440 5.233192
183 1 7.511069 7.250072 12.062821
183 2 8.309857 7.660653 11.966081
183 3 8.016114 6.951379 11.297073
184 1 8.501383 3.319724 9.881017
184 2 9.427159 3.251161 9.798381
184 3 8.724880 2.898213 9.121672
185 1 6.213681 7.022854 10.509694
185 2 5.391440 6.825081 10.250120
185 3 6.145963 6.395439 9.768643
186 1 1.487422 12.878556 2.798670
186 2 1.853798 13.475827 3.336486
186 3 1.043909 0.171484 2.803582
187 1 3.014900 6.454394 6.486600
187 2 3.547163 6.791023 7.073731
187 3 3.696397 6.917545 6.086698
188 1 12.521270 10.388949 8.200540
188 2 12.952957 11.309235 8.138704
188 3 13.029519 10.645262 7.432142
189 1 9.995160 8.106286 1.534576
189 2 10.609176 8.699564 1.252222
189 3 9.818402 8.632045 0.669003
190 1 12.421209 9.068541 2.468596
190 2 12.858023 9.391737 3.186427
190 3 13.148971 9.596829 2.090477
191 1 11.492966 4.313251 11.210364
191 2 11.724057 4.922485 10.591560
191 3 11.393291 3.963713 10.341824
192 1 3.580584 5.982459 4.086495
192 2 3.323289 5.431813 4.814522
192 3 2.698508 5.635540 4.099755
193 1 8.142204 1.156362 6.255265
193 2 8.919006 0.829964 6.446195
193 3 8.169859 0.231822 6.292310
194 1 6.271065 11.048317 12.476118
194 2 6.970861 11.585769 12.557462
194 3 6.743665 10.999640 13.305230
195 1 12.503437 7.295804 8.874234
195 2 12.390127 6.513311 9.229642
195 3 12.032469 6.765089 8.284072
196 1 8.344998 9.404995 1.862251
196 2 8.304837 10.009261 2.631014
196 3 7.891247 9.159674 2.675884
197 1 2.368105 2.271925 4.346367
197 2 2.215887 2.881124 4.993373
197 3 1.461624 2.257308 4.531195
198 1 8.697951 5.634738 3.136069
198 2 8.703836 5.179925 3.894922
198 3 8.986265 4.810867 3.084834
199 1 5.686432 4.912845 12.612247
199 2 5.614536 5.106031 -0.064641
199 3 6.475882 5.084332 13.247173
200 1 3.324287 12.822343 12.572825
200 2 3.726670 12.702858 13.369493
200 3 2.802936 12.265531 13.086726
201 1 12.166244 9.032982 4.349077
201 2 11.932771 9.375412 5.119693
201 3 11.220184 9.273358 4.425483
202 1 2.006044 9.067570 6.530885
202 2 2.104563 9.550127 7.231715
202 3 2.745318 8.880426 7.013808
203 1 0.080898 1.507298 8.951031
203 2 0.389810 1.622871 8.157463
203 3 0.451110 0.759938 8.517373
204 1 6.277503 7.848515 3.055742
204 2 6.633007 8.579171 3.257699
204 3 5.852221 8.743791 2.573052
205 1 2.751462 7.492805 0.311753
205 2 3.135729 8.261031 0.106714
205 3 2.474798 8.379944 0.817269
206 1 7.868671 13.307213 8.014544
206 2 8.625491 0.218905 8.198506
206 3 8.125809 0.269647 7.355029
207 1 10.747389 7.514945 3.319184
207 2 11.549976 7.800031 3.156556
207 3 11.289082 6.765885 3.206737
208 1 3.814758 0.564718 4.800926
208 2 3.518354 1.231057 5.315682
208 3 2.962904 0.720282 4.602265
209 1 10.865480 11.974460 12.262711
209 2 9.968777 12.150675 12.222433
209 3 10.330995 11.527394 11.490108
210 1 1.417099 9.384231 10.467078
210 2 2.081122 9.373538 11.118646
210 3 1.213371 8.921235 11.388453
211 1 7.191152 0.970967 4.354372
211 2 7.828342 1.621357 4.459483
211 3 6.956030 1.920277 4.217123
212 1 11.121640 6.598938 7.763244
212 2 11.748280 5.889887 7.829841
212 3 10.872678 5.861814 8.262696
213 1 -0.095358 11.533366 5.387047
213 2 12.644087 11.745203 5.493950
213 3 13.297573 12.433130 5.772445
214 1 10.555950 9.833572 2.348741
214 2 10.502608 10.292744 3.159929
214 3 9.965953 9.422738 3.097027
215 1 4.222951 3.879846 6.853311
215 2 4.630180 4.513579 6.451912
215 3 4.262533 3.725766 5.937184
216 1 12.805575 11.746800 1.692854
216 2 12.385351 10.944707 1.964764
216 3 13.019676 10.950477 1.284308
217 1 11.692248 5.839508 9.159552
217 2 12.345381 5.681691 8.554342
217 3 11.487851 5.102917 8.547576
218 1 2.319309 9.829707 -0.000632
218 2 1.775122 9.085749 0.172677
218 3 2.438880 9.045371 13.061811
219 1 8.131419 1.085096 2.736230
219 2 8.736965 0.677468 3.359693
219 3 8.236866 0.079029 2.719348
220 1 11.042960 11.787631 0.671672
220 2 11.022951 12.678692 0.625228
220 3 10.748330 12.137601 13.389291
221 1 10.131942 1.741107 4.644559
221 2 9.405760 1.716277 5.100202
221 3 9.454678 1.272614 4.223103
222 1 11.693361 5.775539 1.331204
222 2 11.162204 6.013875 2.104887
222 3 10.729934 5.504188 1.307484
223 1 3.951576 9.037822 5.695953
223 2 4.740759 9.383104 5.544380
223 3 4.028386 9.453074 4.813940
224 1 8.006239 5.869034 3.632892
224 2 7.989785 6.490509 4.226139
224 3 7.383762 6.675470 3.476579
225 1 6.457168 0.762530 2.435725
225 2 7.144354 1.396092 2.110606
225 3 6.524981 0.827732 1.527964
226 1 7.382895 11.347330 0.669881
226 2 7.873253 10.945793 1.289961
226 3 7.391889 10.413120 0.643598
227 1 1.740818 0.123492 5.815462
227 2 2.468771 0.396169 5.460979
227 3 2.018326 13.072429 5.217831
228 1 10.364755 8.787582 7.939437
228 2 9.945537 9.545129 8.283211
228 3 10.452794 8.919623 8.891580
229 1 7.165094 11.811047 7.081212
229 2 7.327261 11.539632 6.239373
229 3 6.480645 11.960725 6.362826
230 1 0.152568 5.934832 3.255930
230 2 0.550023 6.684349 2.951089
230 3 13.339813 6.713007 3.571255
231 1 2.220502 11.276822 2.130280
231 2 2.608780 10.647481 2.624330
231 3 2.221068 10.426764 1.704029
232 1 10.512482 0.565041 8.327626
232 2 11.204266 0.298044 8.909960
232 3 10.993654 1.259534 8.655989
233 1 7.057752 5.025126 6.597330
233 2 7.318640 5.783846 6.199609
233 3 6.643336 5.091698 5.784241
234 1 0.333031 8.148670 3.361110
234 2 0.284576 8.077836 2.485770
234 3 13.141533 8.446150 2.936625
235 1 11.174916 10.877941 11.686606
235 2 12.078776 10.732865 11.873738
235 3 11.571193 9.933852 11.789460
236 1 5.466568 9.994992 3.811887
236 2 5.977544 10.709393 3.590275
236 3 5.107017 10.654708 3.213290
237 1 0.667130 1.174794 1.025401
237 2 13.582591 1.419485 1.584402
237 3 0.202491 0.446289 1.392477
238 1 9.765656 1.985168 12.957968
238 2 9.300743 2.577000 13.428854
238 3 9.045360 2.397546 12.436257
239 1 8.767560 10.741918 9.759550
239 2 9.631594 10.777120 9.658437
239 3 9.162415 10.374054 8.926420
240 1 9.702496 8.482549 8.544128
240 2 8.859808 8.287777 8.320897
240 3 9.514822 8.239816 7.583622
241 1 5.713715 0.738228 0.950750
241 2 5.067530 1.213028 1.236842
241 3 4.801431 0.325190 1.021429
242 1 12.987557 10.451250 11.469965
242 2 13.304615 9.701406 11.072449
242 3 12.324082 10.107470 10.924084
243 1 0.401119 6.588525 8.251332
243 2 13.561297 7.403760 8.092815
243 3 0.209517 6.632037 7.377389
244 1 9.228894 7.190287 7.748367
244 2 10.137478 7.262574 7.620262
244 3 9.579698 7.129639 6.880149
245 1 1.380870 8.065530 7.596054
245 2 1.705942 7.695923 8.349669
245 3 1.048858 7.186064 7.790099
246 1 12.908372 1.084703 5.798731
246 2 13.145248 1.920087 5.889380
246 3 13.254225 1.530546 5.017669
247 1 6.215590 6.198330 7.344350
247 2 6.986288 5.747512 7.337315
247 3 6.281652 5.256409 7.750665
248 1 13.215229 11.157633 12.823962
248 2 12.926926 11.922218 13.297081
248 3 12.290416 11.283937 12.982473
249 1 10.636051 8.479172 12.117633
249 2 10.228810 8.386740 12.937895
249 3 9.729609 8.837627 12.255335
250 1 11.552717 0.854508 2.429119
250 2 11.848099 1.654005 2.711341
250 3 10.866095 1.422589 2.628364
251 1 1.770298 4.525832 6.863977
251 2 2.151765 5.290092 7.296217
251 3 2.637336 4.432690 7.106047
252 1 1.606868 7.300952 5.936153
252 2 2.183779 6.962203 6.476798
252 3 1.336633 6.558784 6.534089
253 1 6.005919 8.137863 4.620661
253 2 6.644392 8.624752 4.299759
253 3 5.773499 8.400376 3.793069
254 1 11.606864 12.987987 6.424999
254 2 11.550709 12.644147 7.255108
254 3 10.849916 12.237772 6.638192
255 1 1.464096 8.398343 6.249212
255 2 2.049454 8.168635 6.813631
255 3 1.140029 7.647978 6.772426
256 1 1.739677 11.867515 4.280627
256 2 1.738907 12.083647 3.426240
256 3 0.987464 11.589200 3.806089
257 1 3.198446 10.826507 5.733603
257 2 3.441757 10.428099 6.559710
257 3 3.228098 9.912554 5.680313
258 1 7.551365 12.540515 9.894081
258 2 7.575540 12.752661 10.801378
258 3 7.149106 11.820082 10.489112
259 1 4.270380 12.821507 12.599133
259 2 4.714154 12.157500 12.242025
259 3 3.871138 11.927391 12.606569
260 1 0.782319 1.939396 1.539532
260 2 0.813231 2.694956 1.075161
260 3 0.132543 2.063391 0.842384
261 1 8.790237 7.800152 2.692540
261 2 8.590405 8.231817 3.432723
261 3 9.480964 7.711863 3.273966
262 1 12.737306 6.385282 6.713090
262 2 11.976254 6.456215 7.108625
262 3 12.278329 5.475550 6.945762
263 1 0.332796 7.719677 7.265781
263 2 0.455275 8.295427 6.581874
263 3 0.159190 7.355006 6.382145
264 1 9.921334 5.140684 8.419420
264 2 9.914561 5.939145 8.829626
264 3 9.222272 5.724078 8.186678
265 1 8.856630 1.728882 8.762278
265 2 9.477518 2.265021 8.369629
265 3 8.805499 1.841701 7.854536
266 1 6.649868 6.238809 5.633556
266 2 7.050118 7.036776 5.661568
266 3 6.224264 6.877915 6.130996
267 1 12.406550 4.550954 10.020254
267 2 12.244185 5.137138 9.369048
267 3 11.883359 4.235428 9.263098
268 1 0.061831 12.840350 13.249676
268 2 0.128187 0.148397 13.037619
268 3 12.879537 13.012738 12.770819
269 1 11.222855 0.367494 6.420983
269 2 11.747395 0.295931 7.117104
269 3 10.824866 -0.068991 7.114237
270 1 12.997017 8.635718 7.841793
270 2 12.855608 9.591867 7.727943
270 3 12.100772 8.952006 7.871271
271 1 12.453595 12.391687 7.657591
271 2 12.656206 13.003219 8.228942
271 3 13.386515 12.282723 7.905206
272 1 12.207515 5.300719 1.857668
272 2 11.866362 5.249656 2.631270
272 3 11.271021 4.970655 2.001481
273 1 2.318142 12.584608 10.445854
273 2 2.463775 12.357322 9.575033
273 3 2.185999 11.624638 10.294971
274 1 0.963429 3.876022 9.474530
274 2 1.830129 4.081448 9.046917
274 3 0.942100 3.801416 8.557208
275 1 8.210170 6.151694 8.687823
275 2 8.128622 6.610118 9.419526
275 3 7.313404 6.473858 8.732709
276 1 6.264543 0.373882 11.822851
276 2 6.265440 13.369583 12.493620
276 3 6.196657 13.001745 11.576258
277 1 7.644213 8.285642 7.298622
277 2 8.426482 8.700686 7.457084
277 3 8.437197 7.728588 7.550944
278 1 7.299599 12.765101 1.679120
278 2 7.092440 13.616560 2.062428
278 3 6.750252 13.397894 1.142540
279 1 11.180113 10.437712 7.141530
279 2 11.764675 11.014791 6.765381
279 3 10.750892 11.245854 6.896195
280 1 1.458173 2.715183 6.200675
280 2 2.435859 2.839938 5.953821
280 3 1.811837 2.136626 5.542065
281 1 1.305090 9.175214 12.456558
281 2 2.076918 8.772285 12.133724
281 3 1.331464 8.185889 12.358012
282 1 3.187900 1.614433 3.180729
282 2 3.085431 2.263082 3.746423
282 3 2.506327 1.331818 3.766901
283 1 12.928107 7.467956 1.220666
283 2 13.172763 8.341257 1.077389
283 3 12.824315 8.031148 1.957862
284 1 5.860326 2.981839 1.658142
284 2 5.931291 3.691392 2.178996
284 3 5.224852 3.723146 1.548080
285 1 7.051730 6.993472 10.263188
285 2 7.746658 7.578532 10.192021
285 3 7.215121 7.232852 9.390537
286 1 0.997350 7.547671 4.881463
286 2 0.156623 7.368539 5.164843
286 3 0.309210 7.295245 4.189183
287 1 5.385477 2.189422 2.194601
287 2 6.214604 2.029985 2.193684
287 3 5.618763 1.298078 2.069079
288 1 11.071937 4.795649 6.882893
288 2 11.594873 4.977035 7.516786
288 3 10.699014 4.704013 7.757471
289 1 3.396926 13.033494 1.387381
289 2 4.064557 13.243820 0.854706
289 3 3.677689 12.272771 0.914596
290 1 2.007482 5.017658 1.123730
290 2 2.467378 5.481834 0.548314
290 3 1.519964 5.202600 0.373849
291 1 0.350137 1.465498 6.050628
291 2 0.815676 0.767930 6.288752
291 3 0.293041 0.763884 5.384110
292 1 6.466679 12.919088 7.959729
292 2 7.073595 13.460928 7.550626
292 3 6.719322 12.796995 6.933878
293 1 6.966517 7.637974 6.399568
293 2 7.437007 8.057251 5.717143
293 3 6.420794 7.779915 5.663880
294 1 2.253971 1.698203 6.340121
294 2 2.091319 2.476603 6.767340
294 3 1.956867 1.695802 7.277263
295 1 8.582273 0.041980 4.653908
295 2 8.504505 0.955820 4.494807
295 3 7.980957 0.312196 4.005300
296 1 11.644686 12.235336 9.028681
296 2 12.294493 12.515810 9.590391
296 3 12.094438 11.481666 9.306738
297 1 4.728546 8.213148 0.016992
297 2 5.054669 7.411381 0.332878
297 3 4.409880 7.341571 13.105486
298 1 7.201830 0.945641 7.038699
298 2 6.633601 1.594185 7.144722
298 3 6.495160 0.710298 7.557003
299 1 1.504545 5.912849 2.048252