1000
Lattice="21.54434690031883 0.0 0.0 0.0 21.54434690031883 0.0 0.0 0.0 21.54434690031883" Properties=:species:S:1:pos:R:3 Time=1000
2 12.753203 10.770598 13.610584
1 10.499716 12.289428 12.116591
2 12.292045 12.602139 16.349548
2 10.709296 10.715737 21.591214
2 11.651821 10.116648 20.605731
2 11.255671 12.513485 1.601292
2 9.677351 10.472011 3.047109
1 11.616319 13.139788 6.530914
1 13.612781 12.322110 8.287234
1 12.346237 10.638653 10.988552
2 11.707319 16.445865 12.945477
1 11.895890 15.214676 14.076981
2 9.896288 15.928683 15.211841
1 11.055790 15.473446 17.147909
1 11.148231 12.655264 20.816391
2 11.885403 13.715950 -1.275403
1 11.410137 14.454328 3.684921
2 9.034053 14.310035 5.303524
1 13.058539 13.587082 7.530322
2 11.045686 13.877682 7.945652
2 8.479340 15.628103 12.265389
1 10.827828 15.892265 13.929258
2 10.257692 14.792075 16.273181
1 11.384637 17.461878 16.972527
2 11.447145 14.090627 18.256064
1 10.034455 16.926923 -0.590106
1 12.640767 15.040100 3.466993
2 13.353805 16.417233 6.289404
2 11.959052 17.364833 7.864142
2 13.491608 17.953574 10.489729
2 12.333775 18.160744 10.624711
2 11.948681 17.726535 12.434639
2 10.790657 16.555603 16.473907
1 12.207785 17.767767 18.682285
1 13.641637 18.534528 21.193654
2 10.832830 19.690354 1.926836
2 9.578946 19.807542 4.240905
1 12.877411 17.567748 5.338846
1 10.353958 17.323072 8.843868
1 11.123778 16.545723 7.973945
2 13.561045 22.662763 12.615579
1 9.550530 21.329697 14.695505
1 12.177596 21.401910 16.197706
1 10.527106 22.858474 18.714188
2 10.366467 18.295635 21.073791
2 11.532164 20.092793 -1.264725
2 11.474873 21.842823 0.311605
1 13.274202 19.951262 4.438209
1 10.982001 19.853495 8.262140
1 11.199342 19.879333 9.182092
1 9.986118 1.788458 9.788821
2 11.080320 1.741411 16.833435
1 13.049863 -0.662712 14.680773
2 10.263087 0.916950 17.204606
2 13.215090 2.516076 21.041336
1 12.393370 -2.166974 0.682485
1 12.355844 -0.245474 5.217574
1 12.276351 -1.096951 2.640945
2 14.574700 1.940966 9.226185
1 9.174401 0.586165 10.823335
2 12.833127 3.850785 9.939836
2 10.451985 5.288093 15.501149
2 11.283139 5.540939 16.288764
2 12.208887 5.268221 20.559238
2 10.592911 1.354082 20.579928
1 13.471158 3.914149 -0.535362
1 11.909810 4.135683 3.695757
1 8.802295 3.806200 4.255527
2 13.705037 1.727177 6.875562
2 11.281603 3.747858 9.812173
2 13.238742 6.529900 12.276490
1 9.514822 7.190156 16.042734
2 9.612857 6.646094 14.908571
1 10.798667 4.747694 21.749991
1 12.051140 4.091714 21.423307
2 11.867589 6.093256 -0.092120
2 11.196347 9.015923 1.983984
1 12.771418 6.446738 6.231662
2 12.132539 3.970693 7.244152
1 13.303332 6.351151 10.698410
2 12.430626 7.339775 12.702836
2 10.239763 7.224181 13.962171
1 10.907246 8.673100 16.058631
2 10.100859 7.824865 18.387309
2 13.079450 8.426071 19.361949
1 12.019967 8.078674 -0.299101
1 11.721308 6.535768 3.260436
1 10.292743 6.832806 5.207950
2 11.225463 7.630077 8.088923
1 13.558900 6.656071 7.463312
2 11.485842 7.797953 12.791508
1 13.601023 9.734949 13.451637
1 11.925493 9.589539 16.766411
2 11.911022 11.037361 17.354929
2 12.424524 9.049456 20.354941
1 12.181335 11.223938 -1.430623
1 14.125520 11.071038 3.123298
1 11.930280 9.795845 4.301816
1 11.218396 10.324602 8.610627
2 13.141649 9.867042 9.862910
2 13.337292 11.263933 10.198969
1 13.092096 12.309760 14.272746
1 11.431531 13.873778 14.381678
2 13.711283 11.800047 18.282898
2 14.486953 10.083754 20.012940
1 12.861100 11.219976 -0.019420
2 12.314629 9.113351 1.645953
1 12.099728 8.002005 4.771644
2 16.049317 9.145886 8.964046
2 12.188824 11.754265 11.532714
2 15.202766 14.128827 10.928056
2 14.566442 15.428602 13.981470
1 14.231749 12.946229 17.418933
2 18.502417 12.133299 18.538145
1 15.491077 13.309617 17.901401
2 15.290285 12.247859 1.461681
1 11.894041 11.142823 3.928428
1 12.611269 13.102329 4.276539
2 15.953539 13.467959 8.658734
2 14.074208 15.460820 10.406768
1 15.048424 17.497887 10.710487
1 12.874453 15.008417 14.466801
2 13.716356 14.722914 17.082876
1 14.039761 15.939932 17.722070
2 16.720053 16.069353 22.922793
1 14.485587 15.289884 0.838706
1 14.674715 17.590172 3.399663
1 14.368844 15.160271 7.409494
1 15.996884 14.834801 8.242960
1 13.236820 16.850541 9.108072
1 14.269574 17.408588 11.523462
1 14.257608 16.517470 10.986003
1 14.736005 17.154024 15.696802
1 15.286264 19.737034 18.662247
2 14.509670 18.216071 20.397201
2 15.246931 19.477506 2.743517
1 13.404903 18.512729 2.738587
1 13.804013 18.521611 5.520418
1 14.050902 16.977847 8.591545
1 15.939427 18.148588 11.426113
2 15.690138 20.859696 11.222310
1 13.162629 21.093408 15.719129
1 11.903668 20.671515 13.966198
1 12.932394 20.414689 18.151452
2 14.930185 19.033085 19.431334
1 13.946952 20.848238 0.948595
2 16.387145 20.066698 4.434755
2 15.218140 21.416042 5.618438
2 11.892660 19.228834 9.955051
2 14.034510 21.869039 9.091485
1 15.068040 1.189102 11.859873
2 14.627305 2.101054 14.410408
1 14.433006 1.922574 15.732663
2 16.375730 2.013616 17.457759
2 13.638014 0.732647 20.082651
1 14.156359 0.950494 2.926861
2 14.418625 -1.654182 4.508500
1 15.683819 2.587154 3.263455
1 14.414512 -1.226254 8.242597
1 10.384589 0.240428 8.283287
1 14.071163 3.610606 10.133289
1 11.947988 3.782504 15.871978
2 13.642258 4.239478 16.569955
1 13.872851 3.026466 17.468672
1 13.794035 3.651271 20.077971
2 14.819505 6.013465 0.409134
1 13.579757 3.005927 3.908168
1 15.126995 3.504482 5.425825
1 15.683264 1.565166 7.860804
2 16.374928 3.640163 9.540950
2 14.707486 3.648103 11.207741
1 14.380536 4.319662 11.955811
1 14.789731 4.358406 13.359967
2 12.877027 4.371235 19.565895
2 13.689808 5.488153 20.661717
1 14.176107 5.044400 0.104858
1 15.471599 7.014763 3.281419
1 13.647621 5.519299 6.388361
1 15.956598 6.782297 5.394194
2 13.318064 8.389984 9.760447
1 12.882105 6.301311 13.495053
1 12.019000 7.030404 14.462422
2 14.270013 7.440723 17.665827
2 13.034026 7.176551 18.056882
1 15.244268 7.628079 17.767974
2 15.214720 9.608553 -0.561429
2 12.471264 8.870805 5.831983
1 13.342223 7.844920 4.454865
2 14.164713 7.978219 6.974438
1 16.090818 5.276715 10.210211
2 15.737211 7.120236 9.377316
1 15.179692 10.289163 14.134863
2 12.880859 11.590769 16.853940
2 14.448238 10.112409 16.592862
2 15.021350 10.248773 21.828647
1 12.283383 8.658047 2.798553
2 14.091919 9.998589 2.355447
2 13.724829 6.847698 4.121435
1 12.824980 12.406726 7.029137
2 12.803950 13.281845 9.449884
2 15.275319 10.755082 10.335974
2 14.504846 12.565409 14.944621
1 17.644053 10.447531 14.759182
2 15.579322 11.184059 18.894008
1 14.899896 12.306249 17.986504
1 20.098018 13.452498 1.717976
1 16.844239 9.938547 4.521278
1 18.140907 10.625354 0.754226
1 15.857128 12.891706 9.969381
1 18.151252 12.414975 8.652969
2 16.277406 13.907280 11.723665
1 17.271096 13.844822 13.974327
2 13.007307 13.664654 15.463368
2 14.748032 14.355042 18.367999
1 15.744987 12.778563 19.607849
2 15.946524 15.093958 1.104284
1 14.969799 15.543990 5.842212
2 16.590902 16.744655 4.242325
1 14.910948 14.868449 8.172410
1 13.584397 12.486468 10.667746
1 16.956042 18.703176 14.729042
2 14.084983 14.676312 14.884327
2 16.946416 17.492480 17.286386
2 17.777391 14.743939 17.231121
2 17.533631 16.942035 20.590807
1 15.226590 18.225299 1.608993
1 17.869122 15.578110 3.232631
1 16.082913 16.861795 6.891683
2 13.168601 14.734344 7.171051
2 17.263420 16.264046 6.692375
1 16.634825 17.878418 12.765159
2 18.463733 20.249135 14.551637
1 17.910948 16.845376 16.410992
1 16.728423 19.284992 17.373941
1 14.865097 18.647829 21.392247
2 16.040672 19.350538 1.101742
2 15.851792 18.358023 3.555833
2 15.422785 19.354692 3.996027
1 17.248845 17.464542 6.943346
2 18.316354 19.030716 8.283639
2 15.718787 22.246460 13.142545
2 15.269122 22.700165 15.749777
2 16.191522 20.795388 15.781625
2 17.430065 20.893696 18.557991
1 14.807221 23.510101 18.891039
1 15.913193 18.307907 0.345828
1 15.026715 18.272400 4.477952
2 16.813837 19.764529 5.457025
1 17.103568 22.040844 6.597148
2 18.725203 20.881242 11.754389
2 14.694976 1.944542 11.239686
2 16.116344 2.424244 13.898282
2 16.566121 1.617862 16.395050
1 17.515382 1.077745 19.775315
2 15.275507 -0.698351 21.673607
2 16.240947 3.407104 3.172379
2 15.949851 1.426799 4.724361
1 16.097750 0.658305 6.281570
1 17.257574 -0.030675 9.487345
2 18.207627 1.680544 9.440678
1 13.593439 3.369599 14.089300
1 15.503363 2.311751 10.384078
2 16.516528 3.551844 18.211486
2 16.359835 0.665806 19.737495
1 14.652556 3.199206 20.729422
2 17.100627 2.632923 -0.091435
2 16.496847 2.589547 4.365594
2 18.290929 0.166216 6.565572
2 16.430772 3.552497 8.074376
1 15.247583 4.295552 9.607798
1 16.918824 5.195407 12.339820
1 15.068073 5.404542 12.784103
1 16.146782 6.433914 17.452343
1 16.732781 8.747143 17.332208
2 14.788238 5.143180 20.243606
1 14.544693 5.129660 1.385848
1 16.406281 7.202471 1.992954
1 16.939007 4.021168 6.637994
1 14.666311 5.426997 6.560427
1 15.615557 3.659355 10.570662
2 17.178128 6.549612 9.481765
2 16.637426 7.717847 15.489318
2 17.423779 7.071983 14.423705
1 17.536982 8.007535 17.063560
2 14.050528 9.366561 19.105998
1 15.088854 9.430889 0.997323
1 14.222761 8.308472 3.171244
1 16.014639 5.678845 5.644467
1 15.070794 8.339336 7.886016
1 14.970435 5.342744 8.967680
1 15.287554 10.257762 12.353237
1 14.740472 11.388506 13.757577
2 16.167772 9.179452 15.783844
2 15.071356 8.935346 16.792711
2 15.379945 8.798868 18.167965
1 15.720986 11.286836 2.055218
2 17.757183 10.498290 4.912552
2 14.755306 8.692116 4.244136
2 18.532749 9.378732 7.524226
2 14.278848 8.886278 8.443043
1 19.498365 11.953085 12.934005
1 18.401741 12.762120 16.047745
1 17.708000 11.114097 18.522261
1 20.351676 15.440877 17.418001
2 17.489701 10.943529 19.757334
2 19.607761 8.996634 2.013176
1 17.100303 12.073331 3.518719
1 17.028329 12.343250 5.366309
1 19.075156 9.838673 6.640308
1 20.045045 11.309933 8.709802
2 17.247885 14.518371 11.215467
1 17.778791 10.058452 10.497559
2 16.410986 14.205993 16.717717
2 19.100097 11.338035 18.044710
2 20.399807 15.703497 18.917848
1 19.719229 15.727156 3.543073
2 19.010150 13.045457 3.060607
2 19.142941 11.832665 3.690446
2 19.697627 13.807771 6.555190
2 20.144317 13.390740 10.186622
1 21.309258 16.235889 14.661516
2 17.154821 14.909280 13.793879
2 20.302320 14.878990 15.359268
2 18.935280 16.515359 18.618915
1 18.010546 18.964024 20.267526
2 18.866594 18.196641 1.385939
1 20.308481 14.890835 3.997770
1 19.354804 17.232806 5.680160
2 14.952150 12.731252 4.665814
1 17.636585 18.482246 9.763921
1 20.169027 18.675153 9.782857
2 20.533735 18.211573 12.053863
1 19.536131 19.427855 17.896224
1 18.615745 17.551933 19.090845
2 13.859741 19.003369 19.973213
1 17.933417 17.553700 1.347215
2 16.949620 17.972328 2.326963
1 17.146231 17.199653 5.047984
1 20.382353 19.176054 8.513790
2 18.675757 20.430638 10.797638
1 19.442338 18.608733 11.033832
2 17.797137 23.748846 14.043851
2 18.315210 20.289147 18.081002
2 17.309003 20.559851 15.951615
1 17.492307 19.216458 21.592981
1 17.124098 18.853205 1.506455
2 15.999216 20.263473 3.012646
1 18.118798 22.735066 4.850675
2 18.807148 20.562942 8.877310
2 20.248002 19.533699 10.802493
1 18.174106 4.027374 10.695148
1 16.789032 4.036922 13.055805
2 19.058765 0.717806 16.357353
1 17.119556 1.775405 15.173943
2 20.223097 -0.375356 21.209375
1 21.371195 0.496829 0.925397
1 18.133554 0.390632 3.262769
2 15.536933 1.223462 3.599194
1 18.018369 2.995216 6.803507
2 13.054488 0.335433 11.787379
1 18.340056 5.369214 12.894862
2 17.517026 2.652087 10.953561
1 17.354248 2.986940 16.098015
1 16.538323 2.900389 20.113025
1 17.263262 2.071036 18.906931
2 21.176647 0.218808 -0.785754
2 19.870640 2.855827 5.470169
2 19.622558 1.914038 4.716439
2 20.537047 4.252078 7.824691
1 18.494733 2.475243 11.843857
2 17.784640 4.256870 9.640919
1 18.121894 3.931021 14.887742
2 17.020915 4.170724 16.706953
2 18.314901 3.736757 16.330644
1 20.445898 3.473878 21.718891
1 19.765249 6.563418 0.294805
2 18.387458 4.662603 4.534842
2 16.539165 4.351154 5.665638
1 17.474528 4.641192 8.578604
1 17.950080 5.372558 9.891538
2 19.704680 8.760933 11.231761
2 18.299832 6.315166 11.803269
1 18.287984 6.611553 16.449260
2 18.203213 7.771001 18.965238
1 16.730406 8.775645 18.671212
1 18.345655 9.014752 -0.606601
2 17.415043 5.934714 4.002537
2 19.621627 6.680730 5.194054
2 17.549376 8.290868 8.781714
2 16.338441 5.430384 11.286938
2 18.935688 9.720424 12.292879
2 20.126637 10.356693 13.296147
2 18.771910 10.374274 16.818278
2 18.786107 9.679098 20.043851
2 21.039328 11.118396 22.819518
2 17.117836 8.939841 4.047274
1 20.281266 10.246013 4.468670
2 17.837801 9.954664 6.815841
2 17.553953 8.176859 9.943402
2 17.675017 9.384997 9.095491
1 19.817296 11.718261 11.653999
2 19.738985 12.125284 14.093138
2 22.167093 11.968364 16.419282
1 18.536028 10.233793 18.556163
1 22.020005 10.663538 22.650279
2 17.458879 12.140878 2.080638
1 22.261718 12.135786 3.757151
2 22.693729 10.482801 5.696859
2 19.116300 13.106296 7.227691
2 21.526242 12.326245 9.963580
1 20.779444 12.736217 10.960861
2 20.649415 13.921416 14.402451
2 21.224616 15.182859 16.024177
2 21.220657 10.901751 19.286232
1 17.107707 16.559176 21.690622
1 18.814515 12.662959 1.666670
2 21.372500 14.639375 3.227765
2 19.945176 12.795501 5.782110
2 22.040891 14.039667 8.104660
1 20.309551 14.876122 9.833932
1 22.035939 15.338065 11.395989
2 21.489608 15.906121 13.344836
2 21.418006 16.256423 17.308617
2 19.810717 17.052507 19.527740
1 17.923249 16.714607 19.082426
2 21.738195 15.860194 4.594835
1 21.508987 20.037858 3.622320
1 20.615266 15.024415 6.020690
1 20.712262 16.716080 7.746247
1 20.971052 15.863130 8.674916
2 21.503101 18.725598 12.396290
2 20.884050 17.902016 13.244344
1 19.463143 15.147798 14.784986
2 18.015014 17.625952 18.332742
1 19.660537 19.557458 20.955320
1 20.520769 19.558769 -0.938745
1 22.037396 16.043009 3.016993
2 21.513752 19.544905 5.994380
2 19.491957 19.527970 9.454337
2 23.896728 17.314266 12.386349
1 21.229901 21.705941 11.906680
2 20.415285 22.323186 14.223521
2 18.270053 21.887035 15.858957
2 19.862223 20.037344 19.679832
2 21.366628 18.849449 20.350202
2 16.353340 23.279450 -0.388596
1 22.090409 23.870289 2.136215
2 21.534332 18.319665 6.036487
1 19.897141 21.842023 8.003208
2 19.154681 20.215645 7.513133
1 20.423168 2.155635 14.796681
1 20.454534 1.826431 12.597587
2 19.739309 1.162763 15.365871
2 20.001703 0.795569 17.012865
2 20.547330 1.758563 20.584643
2 23.257715 1.433131 3.574248
2 20.142465 -1.215465 2.300193
2 19.718156 2.311493 6.811305
2 20.480749 2.183630 8.250549
1 19.193014 0.384157 8.656015
1 21.232624 5.393428 10.719230
2 20.826783 4.528788 11.574480
1 19.308175 1.460949 17.534739
2 23.170271 3.673064 17.799539
1 21.517223 4.223579 21.399172
1 18.909390 1.753666 -1.129191
1 20.399899 5.380735 4.600050
2 19.429076 4.906845 5.800370
1 19.267457 5.608071 8.253427
1 21.498544 4.764963 12.382420
1 19.675309 5.298753 12.777339
2 19.808971 6.048631 13.947024
2 24.406279 5.249571 16.021147
1 20.167664 5.827784 18.773513
2 21.282072 5.427305 17.631097
1 23.632340 4.369534 2.919075
2 19.728397 6.113381 3.740727
2 20.434073 5.118116 6.122507
2 22.040520 7.205620 8.925573
1 19.309892 5.891817 9.885761
2 19.038389 7.808991 12.874568
1 22.879500 7.784762 15.790626
2 22.251646 4.737054 18.418490
1 19.006973 9.523738 17.459878
2 21.642895 7.695259 21.803686
2 20.458711 8.781889 0.639386
1 20.274052 7.063649 4.540047
2 21.148290 9.524270 4.995709
2 19.512270 8.764066 7.749211
1 21.076251 10.016037 9.072282
1 21.240549 10.724173 7.671387
2 21.397432 10.695512 14.359043
1 19.524424 12.564535 15.758182
2 19.571828 9.925497 18.240524
2 19.989117 10.656603 19.801989
1 20.213696 7.632241 1.291329
1 21.320843 8.590827 2.968173
2 21.224366 10.971739 4.190011
2 22.505749 8.455545 8.893265
1 20.347933 9.484769 10.520618
2 0.236475 13.635882 13.110264
1 -0.124287 12.377043 12.395633
2 2.501458 11.371430 15.455024
1 0.526506 11.977996 17.626328
2 -1.176092 10.704546 17.005627
2 0.507578 13.496286 1.799415
2 1.320892 12.181885 2.533598
2 0.680223 10.115828 4.627252
2 -1.235496 11.719220 7.476425
2 1.866972 13.855476 10.072479
2 -0.798531 14.417202 12.267256
2 3.960224 14.243941 14.367339
2 1.270190 14.571002 18.031212
1 0.589187 12.773572 18.934058
1 3.530333 11.969830 18.307035
2 2.649979 13.050970 0.738765
2 -1.576817 12.626711 3.316003
2 2.036952 15.301560 4.525064
1 -0.414027 12.898386 5.967334
1 -0.337197 13.824722 10.169591
2 0.976137 13.830052 11.446312
1 1.846310 15.899008 13.335889
1 1.220675 17.274588 17.007412
1 2.304214 15.322790 17.981905
2 0.856546 17.018658 21.649565
1 0.689261 16.756659 1.120141
2 0.947534 15.526375 3.745015
1 1.029284 19.015118 2.242057
1 0.209082 17.419040 8.155986
1 1.004010 17.131630 8.916261
1 1.627997 19.379311 13.877686
2 0.995589 17.592446 12.098481
2 0.604685 16.691717 13.889576
1 1.177577 19.269375 15.609507
2 1.920175 19.308628 21.625233
1 -0.553454 16.720799 -2.143178
1 1.363786 18.729716 4.521037
2 -0.157398 18.909336 5.139285
2 2.727765 17.443680 6.856939
1 1.732293 19.185818 6.796829
2 0.778114 22.477282 10.950905
1 0.545429 19.619406 13.581826
1 0.282046 20.380913 16.472301
2 -1.334602 19.999268 18.608140
2 1.391766 23.282089 20.783226
1 1.379411 19.566636 1.394133
1 1.478045 24.396075 3.851276
1 1.041441 22.030099 4.198165
1 0.898493 19.990569 9.582349
1 2.480030 19.739885 10.566383
1 2.260591 0.502861 10.892826
1 -0.920000 1.401092 16.048105
2 0.529412 0.932098 16.654140
2 3.167490 3.718255 18.491295
1 3.672133 0.959544 22.872870
1 -0.118078 0.938163 2.473963
1 1.377583 0.238100 1.969865
1 -1.063151 2.438461 4.038601
1 3.422258 -0.495877 6.665357
2 0.099894 -0.005340 8.382572
1 4.026126 3.479516 12.493591
2 0.758157 5.220054 14.788221
2 -0.286427 1.693106 13.353583
1 1.258883 2.054914 18.413521
2 -0.199159 3.666371 19.727888
1 2.593840 3.091886 2.826472
2 0.103749 2.874115 3.966668
1 2.181814 0.012917 4.565609
2 0.306156 4.087642 9.016872
1 0.389238 3.981110 7.984560
2 2.746406 6.083394 12.872464
1 -0.215200 3.280853 13.896362
2 0.592308 6.335461 16.697990
2 0.925695 3.216251 15.974623
2 0.853984 5.885510 20.024521
2 1.298865 7.560826 1.357209
1 0.186863 5.852467 1.557790
2 1.088220 4.891589 3.210194
1 0.776366 6.492625 6.821966
1 2.294818 7.264184 7.210207
1 1.990053 9.315988 13.552212
2 -1.246862 9.649881 15.953944
2 0.319827 9.544982 14.740210
2 2.111705 6.161334 19.135126
1 -0.180288 10.006259 22.040967
1 1.480829 8.531368 0.232151
1 3.844570 3.916246 1.594786
2 -0.979463 7.325964 5.835436
2 -0.146086 6.484063 7.437890
1 1.080518 7.897221 10.220844
1 1.068902 8.083829 12.185617
1 2.250473 10.217568 13.090201
1 0.336000 11.987337 14.982875
1 -1.263882 9.472052 17.537087
1 -0.589054 9.103368 18.347640
2 -0.925094 9.633059 2.133404
2 2.857653 11.039725 2.496426
1 -0.122922 8.261922 3.920439
2 2.077793 8.873682 7.080033
2 1.164632 10.535770 7.929449
2 1.609969 13.188342 13.060591
1 2.606692 12.533946 11.950165
1 3.500753 11.072593 15.887061
2 3.800185 12.785509 16.972857
2 4.292132 11.837080 19.615478
2 2.506353 12.208412 -0.160120
2 1.602207 11.434558 3.389684
2 4.218371 12.416908 5.615080
1 0.839390 13.122390 9.997967
2 2.247865 9.097083 10.226092
2 2.488962 13.746730 11.774363
2 3.096250 13.052143 15.082524
2 7.068518 11.332940 15.481188
1 5.659462 16.295070 17.147094
2 1.368943 14.292947 16.076048
1 3.107613 13.578801 3.238138
2 4.869017 12.068947 4.590860
1 5.087040 12.541846 6.175719
1 2.437725 13.916088 5.446564
2 0.727778 14.396775 9.909358
1 5.332457 17.849698 15.454106
2 4.153085 18.116936 14.739176
2 2.427013 16.685878 17.216362
2 3.120210 15.594093 18.951902
1 3.946684 16.863153 23.401202
2 2.857071 14.351172 0.905028
2 5.285419 15.869544 2.669030
2 3.877956 15.602972 8.009916
2 8.239584 17.696063 7.616770
2 1.914731 15.617924 10.184645
2 3.548844 16.087375 11.631380
1 3.027084 17.871094 13.618869
1 2.261892 17.173574 15.499729
2 3.160915 16.465466 19.678579
1 4.695731 19.353182 20.547855
2 1.924209 18.535581 1.750984
2 4.258203 19.515817 2.055581
1 4.592542 19.078841 4.131651
1 5.181309 16.356397 6.595000
1 0.551663 17.129167 9.956543
2 2.395861 20.536260 14.787894
1 1.675878 20.355290 11.696663
1 0.518183 23.618817 15.213421
1 3.385177 20.987067 16.920079
1 2.694196 18.828423 20.961409
1 1.123190 21.480445 -1.790726
1 1.418409 19.222891 3.579577
1 2.838778 18.553108 5.781065
1 1.783568 23.125333 8.582868
2 5.358054 20.727998 6.901169
2 2.363109 -0.396930 11.947563
1 2.925423 1.543509 14.488727
1 3.663178 0.670403 17.414987
2 0.182008 -0.014884 17.338960
2 1.506124 -0.799572 17.081640
1 2.019450 3.709176 -0.695809
1 1.360287 -1.725027 2.729833
2 2.414236 -1.241833 6.458529
1 3.108448 2.639934 5.269672
1 4.223594 0.436369 11.082870
1 1.360418 1.617765 6.848576
1 2.502018 2.272570 15.134376
1 5.880561 3.898221 16.920864
1 5.185222 5.206968 18.772724
1 5.421098 5.110050 21.381281
2 3.611011 3.687059 2.625405
2 3.113626 2.342541 4.304989
2 4.408653 5.913328 3.796181
2 3.201956 1.407512 5.827721
1 3.610174 5.871343 9.965948
1 3.899362 1.679063 9.937989
2 2.800726 5.954753 14.671341
1 4.431830 5.648806 15.475972
1 2.216783 5.067993 18.764851
2 3.762541 4.990063 21.134688
1 6.084961 6.117752 0.020628
2 5.698944 3.654701 4.572296
1 4.589036 3.830644 4.219609
2 4.135970 4.591079 8.221175
2 3.074826 3.786585 8.524931
1 3.614286 6.846801 11.809815
2 3.710830 7.641412 13.819701
1 1.698781 5.408179 16.016971
2 1.321409 5.531221 17.158100
1 2.533917 9.357494 21.054852
1 3.749027 7.150994 0.460742
1 0.810136 8.963855 1.344606
1 3.865232 6.674746 5.114371
2 4.124692 5.741629 9.041194
2 4.487839 6.315056 10.752826
2 1.533771 11.439681 12.800291
1 4.216443 9.702602 14.521961
1 2.523954 10.473959 14.452196
2 3.065783 9.549300 14.529768
2 3.191938 11.656748 22.276486
2 3.897980 10.922537 0.186103
1 4.565443 10.129249 2.987033
1 3.996020 10.727220 4.418241
1 2.450555 10.524776 6.053570
1 2.415227 9.000851 11.548257
1 7.443013 10.791970 14.018246
2 2.387315 11.914106 14.247300
1 4.360990 11.450525 15.066755
2 5.971139 12.818186 18.938582
2 6.854761 13.790324 19.507939
1 2.714079 12.197406 1.641359
2 7.171531 13.797004 3.287672
2 4.720369 11.137429 6.119585
1 5.754743 13.000125 7.488318
2 6.265241 12.194721 7.014765
1 5.980749 13.125619 13.536906
1 4.269908 13.924689 15.318284
2 5.158570 14.838889 15.469469
1 5.808946 14.242400 17.628571
1 2.474929 14.457902 18.860024
2 5.138786 14.402669 1.725227
1 5.801390 12.755916 3.002998
2 5.560546 13.251082 4.178873
2 5.143328 15.126963 6.358588
1 4.698535 14.252004 10.732862
1 6.211861 17.647072 11.851217
1 3.512283 15.443032 13.054556
1 4.651117 16.566943 14.884760
1 5.259503 18.162193 16.793708
2 3.581266 17.929147 20.661114
1 6.052756 18.039868 2.500927
2 7.393843 17.135068 2.726396
2 3.819772 16.356955 5.600096
2 6.827074 16.585059 3.965818
2 7.054700 15.068904 9.451200
1 7.696116 16.593856 8.432948
2 3.859918 15.415757 14.728517
2 4.654208 17.616292 16.137588
1 7.467676 17.372719 14.661261
2 3.487073 14.969343 21.823408
1 4.990832 20.241302 1.415533
1 6.177317 18.520889 4.319992
1 6.319566 19.142627 3.205852
1 7.141545 14.151310 6.100698
2 5.453841 20.645291 8.490275
1 5.176970 21.917464 11.497333
1 4.298033 19.585261 15.099858
1 3.030551 18.975215 15.627779
2 6.361810 19.972696 18.532781
2 4.546934 20.563208 19.458540
1 5.688636 18.516066 1.101847
2 5.327761 22.972481 3.279843
2 4.523351 18.237127 7.878874
2 5.416039 19.580984 4.281710
1 3.315570 21.270602 9.648758
1 4.221934 0.863788 13.212881
2 5.363003 1.083810 13.705312
1 5.516066 0.355256 17.552454
2 7.095844 -0.597362 18.685790
2 6.624582 0.253484 18.015874
1 5.867924 1.473270 -1.808650
1 5.528877 -0.250201 1.740956
2 5.653052 0.504870 6.759133
2 5.090559 0.330288 7.883791
1 4.304574 0.702724 9.616678
1 4.897378 4.096238 10.217257
2 7.383734 6.023088 12.096187
1 4.847938 4.585562 15.768420
2 6.347077 4.918718 17.970286
1 5.663967 5.224491 20.359236
2 3.742528 1.990137 2.528217
1 6.300102 1.227587 1.771511
2 6.702298 3.263336 5.488016
2 5.860515 4.312891 7.512132
1 7.632120 1.130335 9.597856
1 8.820243 6.339133 12.250721
2 5.091355 8.400808 12.554019
2 6.779101 6.989208 15.208438
1 4.071673 5.476726 18.964243
2 6.243771 3.361585 22.098798
1 6.964562 6.208979 -0.215873
1 4.491304 5.161770 3.042517
1 5.208653 6.559400 4.350861
2 6.328206 4.573418 5.908440
2 5.818797 4.322282 10.496395
1 6.208999 9.064061 12.508309
1 5.017962 7.759407 14.108256
2 7.410041 8.547178 14.716246
2 3.754067 8.641305 16.791627
2 6.084671 4.008628 20.789837
2 7.521905 7.998982 0.542663
1 5.693774 7.575884 1.901570
1 4.464130 8.715464 2.745037
1 6.509708 5.546399 7.732842
2 5.741052 6.082599 9.480103
1 6.930986 9.533030 11.654887
2 8.080338 10.072626 12.766828
1 2.247857 9.054673 12.651467
1 5.666367 7.606280 17.765742
1 7.867794 10.671377 21.558829
2 4.711648 10.435938 1.981457
1 3.629641 10.292051 2.823313
1 7.431103 8.575582 4.027461
2 3.449776 9.940840 8.908992
2 4.909552 9.585437 10.796735
2 7.482437 12.520983 10.878636
2 4.839686 12.671937 12.688056
1 6.276634 12.787806 15.991473
1 8.187900 9.752458 18.121598
1 7.071905 11.189490 20.765742
1 8.266032 10.945760 2.755790
2 5.624271 13.782438 2.748253
2 7.622733 12.061070 3.885546
1 6.119390 11.109138 8.364423
2 7.129193 11.904975 10.021830
2 8.749988 14.879640 8.930674
1 7.675519 13.682922 15.285251
1 6.393981 15.224823 15.372083
2 6.790521 16.009873 18.766994
1 7.810190 13.160319 20.073555
2 6.313134 12.830205 2.081571
2 6.885267 16.125261 2.908709
2 5.390153 14.079385 5.577934
1 6.772089 13.230503 6.293455
1 9.013286 15.650896 13.258659
2 6.874676 13.323375 10.579535
2 7.981203 16.097302 13.162917
2 7.418801 16.005381 14.283043
1 6.822138 16.194269 17.148931
1 8.871138 18.078375 20.846006
2 7.983715 15.701230 -0.307741
2 6.729874 13.208524 5.252786
2 8.013632 16.841744 4.041669
2 9.048126 15.797271 7.657037
2 10.006659 16.654668 11.310920
2 8.568903 19.660759 9.609059
1 6.812600 17.031263 13.300119
1 6.550887 18.312067 18.854436
1 8.853181 18.204448 16.256112
1 8.298564 17.559730 19.908779
1 10.342681 16.836985 0.708666
2 7.735609 18.606586 2.591654
1 8.170403 17.719574 6.195446
2 8.106065 19.135363 7.124782
2 7.432308 18.167490 12.767080
1 6.706707 18.457320 10.214782
2 7.107059 20.395643 14.066001
1 5.152267 19.003522 15.860718
1 8.352921 20.744545 19.084996
2 7.613046 20.577327 20.057786
1 9.579376 20.302518 2.971199
1 7.088971 20.094089 3.510225
1 6.553105 21.221318 2.750687
1 7.032466 20.496031 7.476900
2 6.521493 19.804763 9.494668
1 9.211488 1.849336 13.010735
1 9.587294 0.811302 14.976379
1 9.041755 -0.041205 15.528781
2 9.136121 1.316415 19.444568
2 9.160510 2.306076 18.812063
2 9.279255 1.257823 -0.746567
1 6.833849 1.548809 6.197633
2 8.045861 2.637111 4.290941
1 7.861991 2.341395 6.651442
2 9.197380 -0.652829 7.616093
1 7.717539 4.318476 13.177811
1 8.337681 4.088312 14.193173
1 7.347021 2.109472 13.098298
2 9.150630 4.484837 17.369419
1 7.172488 4.053010 20.240686
2 8.671385 0.841082 1.697914
1 5.832257 3.140340 1.722159
2 5.830755 3.071802 6.988712
1 4.401488 2.492258 6.476281
2 7.255241 3.549148 9.951781
1 7.968296 5.004802 11.806219
2 6.023168 4.771615 15.182508
2 6.780120 4.055888 17.289866
2 9.934517 3.339959 19.719599
1 6.557979 5.132648 21.467619
1 7.801403 4.519868 0.987155
2 5.364296 4.969690 4.393606
1 9.894321 4.993902 7.690223
1 7.950073 4.044846 7.441274
1 6.137345 7.220210 9.043994
1 5.729835 7.778019 13.236754
1 5.933481 7.817056 15.188119
1 9.838595 7.154245 17.330692
2 7.080576 5.716463 18.338985
1 6.763133 8.695400 21.837817
2 6.447025 7.807870 1.274347
2 7.251417 8.055005 2.648389
2 6.676287 8.298356 6.136481
2 7.184529 9.160842 5.486940
1 7.145189 6.861602 8.713641
1 6.482124 10.637978 12.960828
2 7.209046 9.993175 14.889208
2 8.296038 11.812242 15.452090
2 7.582639 10.307610 20.566438
2 7.870677 10.660066 22.672561
2 6.998626 9.889770 0.854556
1 5.261674 9.731337 6.186497
1 6.627588 11.132484 3.039657
1 7.566740 12.476405 7.087606
2 9.123488 9.698495 9.744851
2 11.621717 14.133885 13.112818
2 10.696688 13.262380 13.295068
2 10.442922 10.866382 16.514329
2 9.669645 10.457208 20.200911
2 10.495753 13.858207 21.268395
2 9.871872 11.328790 -0.321553
1 12.830048 9.909070 5.757737
2 9.427577 10.244684 5.267895
2 7.522901 12.665542 9.210482
2 9.132118 11.457146 8.995415
2 9.822237 14.996174 9.608264
2 10.504861 12.560411 14.553648
2 9.478754 13.146054 16.599640
2 8.714950 14.525681 16.481865
1 7.967315 15.433148 19.764210
1 8.863857 11.137061 1.373556
1 11.066587 13.231681 3.777425
2 10.133190 13.578287 6.865234
2 9.702447 14.773916 8.081087
1 12.489901 14.414727 9.277866
1 9.547486 16.621621 10.130130
2 9.834977 14.864751 13.983887
2 8.951789 17.407640 15.203238
2 7.866246 16.495705 19.762033
1 9.393836 17.740257 19.810656
1 9.718164 12.469503 0.682992
1 11.878679 18.368665 0.645996
1 11.992633 18.556679 6.468765
2 9.202816 15.742379 11.063015
1 7.946935 15.336186 10.068295
1 9.711374 19.925284 9.571261
1 10.636963 18.566353 14.400678
2 12.667409 15.389516 15.499472
1 8.466540 16.841919 18.775122
1 6.909310 21.992776 20.076261
1 7.966651 19.603862 -0.524130
1 10.078174 18.012553 4.667939
1 12.543599 19.239580 8.363682
1 11.068779 17.947951 6.205914
2 9.543149 17.861854 9.909115
1 8.280405 23.006928 11.899690
1 9.868430 20.454629 15.382080
2 9.578833 21.359888 16.594959
2 11.877168 19.258875 17.963912
1 11.260535 19.530491 18.738987
2 9.518798 21.576220 -0.082673
2 9.739464 20.002767 1.711995
2 7.845211 21.529665 3.705585
2 8.343753 20.596414 10.174992
2 9.599146 20.828118 10.187330
1 11.345296 1.391492 12.053014
1 10.873435 -1.451280 14.488128
1 11.628578 0.522297 15.610894
1 8.614234 3.140443 17.957075
1 8.805595 -1.286890 20.434211
2 8.322414 3.310204 -0.281870
2 13.217581 1.234345 3.115048
2 8.938013 2.105657 5.995730
2 9.184100 0.929351 6.885975
1 8.794856 0.133070 9.356143
2 6.938166 2.138593 11.259715
1 9.643787 1.629740 11.861337
2 8.300978 4.648045 15.386127
2 8.504636 2.367218 20.610933
1 10.570369 3.759583 20.603884
1 8.762350 3.647838 1.539884
1 9.436921 3.916019 3.317319
1 8.570604 3.665189 5.732027
2 8.706769 3.723312 8.289451
1 9.582482 4.637300 9.757757
1 10.103847 5.862820 10.286481
1 10.773089 6.303113 15.064513
2 10.031539 3.794852 17.876293