1000
Lattice="11.544156732643192 0.0 0.0 0.0 11.544156732643192 0.0 0.0 0.0 11.544156732643192" Properties=:species:S:1:pos:R:3 Time=1000
1 7.054609 5.719676 6.902930
1 5.036374 5.611037 7.703152
1 6.381158 5.514229 8.426181
2 5.141624 6.358933 9.718575
2 6.472064 6.252522 10.394068
2 5.249089 6.166515 0.793848
2 6.763189 6.201167 0.882726
2 6.128320 6.662078 2.726702
2 6.716750 6.293633 3.559209
1 6.098959 5.686017 4.557693
2 6.580531 8.528820 5.685920
2 6.443197 8.749151 7.072034
1 5.326363 6.676822 6.723519
2 5.957998 8.463507 9.743909
1 5.609471 6.514705 11.168150
1 6.774363 6.932507 -0.358981
1 6.962446 7.685595 1.807796
1 5.424098 7.945154 4.167824
1 5.846240 7.033589 4.701186
1 5.567162 8.868568 5.017234
1 3.482832 8.623881 6.433189
1 5.715285 9.420346 6.235384
2 6.015586 8.117392 8.540799
1 7.300755 7.751782 10.526025
2 6.230035 7.611032 10.461676
1 6.310561 9.419668 0.508467
1 5.747569 7.723364 2.783870
2 6.697256 8.576479 2.221378
2 6.037510 8.431651 3.510290
2 6.834869 9.515147 6.255317
2 6.953429 10.896747 6.084175
2 7.599117 10.272652 7.059271
1 6.980496 8.900085 8.897280
1 6.882013 8.884371 10.140549
1 7.458614 9.147649 11.476825
2 5.227896 9.843209 0.460873
2 5.524321 9.133477 1.371430
1 6.820766 10.853264 2.854115
1 5.815993 9.768504 2.966337
2 6.027498 9.535810 4.106615
1 7.461991 11.791474 6.602160
1 5.296469 10.154697 8.968157
1 7.261466 11.162965 9.324172
1 6.256264 11.920066 10.261983
2 6.053601 10.275947 11.378684
1 7.169985 10.005523 0.637921
1 6.854332 10.653517 1.457551
2 5.614494 10.869211 2.907006
1 5.441952 10.876782 4.975685
1 6.198754 9.922801 5.227505
1 8.022879 1.235046 5.289148
1 6.306039 0.071567 7.502552
1 6.024863 -0.534766 9.380338
2 6.392195 1.557455 9.814001
2 6.903150 0.108723 11.511290
2 6.789804 1.395043 0.387755
1 5.809101 0.078198 1.999037
2 7.140989 0.407262 1.865322
2 6.790731 1.143809 5.653668
2 5.784888 0.653362 4.792848
2 6.889195 2.176738 6.693486
1 6.255206 2.731074 8.000713
1 6.704232 1.688061 8.708715
2 7.015636 2.565772 9.857491
2 5.966794 0.938144 11.154650
1 7.966164 1.721520 0.279287
1 5.518865 1.595056 2.098944
1 6.289738 0.990119 1.886784
2 6.549724 0.643982 2.943148
2 5.599936 1.593672 5.650522
2 5.778206 2.633277 6.927544
2 4.694480 2.778627 7.332601
1 6.053241 2.447858 9.165899
2 7.143247 3.842012 10.298931
1 6.001032 2.065392 10.915379
2 5.323450 2.816440 1.461810
2 6.663226 2.989613 2.227555
2 6.511190 3.398346 3.196536
2 6.612364 2.105338 3.978870
2 5.996826 2.873255 5.744739
1 5.868027 3.803842 6.774167
2 6.586189 3.910093 7.947553
1 5.347115 3.749836 8.169208
2 6.106793 3.786689 8.972528
2 6.095670 4.418670 9.892270
2 6.270076 3.672943 -0.461002
2 6.421400 3.967611 1.327344
1 4.833888 4.465396 3.537660
1 5.996515 4.226614 3.635327
1 6.542927 4.445057 4.737535
1 6.834674 4.392837 6.615768
2 7.051391 4.915189 7.868194
1 6.979030 4.796254 9.107225
2 6.186209 5.522393 9.431138
2 6.975934 5.055800 10.135870
2 6.567914 5.553639 -0.325024
1 6.668420 5.127213 1.781129
2 5.286378 4.988433 2.549445
1 6.357944 5.197489 3.527567
1 6.304393 5.104329 5.520484
1 7.023378 6.836942 7.189549
1 7.300215 6.676927 8.290401
1 6.418284 6.927620 8.700598
2 7.462044 6.039182 10.927162
2 7.917154 6.869316 10.375378
1 8.531414 6.528303 0.483397
2 7.016836 6.523844 1.896130
2 7.234712 5.662616 2.602707
2 8.120508 6.003510 4.126993
1 7.810915 6.300444 5.331271
2 8.115371 6.947897 6.239083
2 6.862124 7.884986 7.817091
1 5.708290 6.254226 8.467547
1 7.247929 8.115646 9.499670
1 7.048463 6.971270 9.713439
2 7.495108 7.136770 0.877278
1 6.714064 7.431666 3.077061
1 7.702635 6.778734 3.026181
2 7.307530 6.962546 4.475091
1 6.392145 8.193923 4.620778
1 8.192080 8.360146 5.823838
2 7.365099 9.061503 7.678161
1 7.956575 8.581466 8.496630
2 7.850987 9.123412 9.525959
1 8.090520 8.369099 11.771387
1 6.494635 8.043428 0.957644
1 7.698086 8.978323 2.226629
1 7.790714 7.825803 2.762604
2 7.612618 8.230221 3.939570
1 8.364062 8.468556 4.800091
1 8.111315 9.051453 6.672160
2 7.947013 9.960320 6.047028
2 7.629866 9.896821 8.286680
1 7.694059 10.234966 9.517686
1 7.162133 9.872072 10.632048
1 6.988628 9.411410 1.629646
2 7.890390 9.950420 1.640711
2 7.144113 9.175884 3.687913
2 8.289249 9.965318 4.563863
2 7.588146 9.191513 4.918230
2 7.430553 10.581828 5.161942
1 7.283736 11.427455 7.519391
2 6.018631 12.387147 8.363064
1 8.077886 10.874025 10.160575
2 7.624367 10.945934 11.292558
1 7.421477 11.416145 0.872240
1 7.821085 10.693725 2.357680
1 7.715522 11.375311 3.484288
1 6.982080 10.081338 4.334820
2 6.608948 11.231991 4.914802
2 7.545987 0.210466 5.551413
2 6.880749 0.894203 7.258511
1 7.196675 0.605365 8.407331
1 7.461918 1.205970 9.329673
1 6.929693 1.051617 10.502553
2 7.690511 1.003610 1.224444
1 8.374158 0.112068 1.623896
2 8.925566 0.188235 3.436014
2 6.261994 -0.678329 4.008101
1 7.170621 0.219190 4.283957
2 6.784622 2.364412 5.097255
2 7.507397 1.702315 7.734681
2 7.657026 2.650208 8.278318
1 8.144272 2.314038 10.641630
2 7.168328 2.584219 11.226450
1 8.332162 2.781684 -0.078173
2 7.062030 2.367092 1.227343
1 7.211387 1.404921 2.535613
1 8.194160 2.132290 3.111824
2 7.440733 1.620916 4.436398
1 7.174376 3.461113 5.779557
1 7.180443 3.126527 6.908322
1 8.697166 2.205969 8.143574
1 7.966290 3.038034 9.700543
1 7.714702 3.518332 11.059605
1 5.963278 3.060732 0.375704
2 7.888922 3.399567 1.048034
1 7.306111 2.620074 3.124129
1 7.999330 2.676328 3.993618
1 6.261824 3.496349 4.309546
1 8.826255 3.841646 6.925680
2 7.768591 4.492958 7.102979
2 7.903516 4.224818 8.171712
1 7.206904 3.555262 9.174561
2 8.241545 4.561765 11.287612
1 9.368076 3.618802 0.225852
2 7.222329 4.594750 0.906020
1 6.626601 4.200123 2.495032
1 7.706544 3.961840 2.928475
1 8.294951 4.328340 5.271204
1 7.563956 4.585596 5.913577
1 7.994230 6.268807 7.486183
1 8.121676 6.906136 8.993832
1 7.338613 5.745324 9.053552
1 7.632572 5.484489 11.908166
2 7.186092 4.638683 -0.309209
2 7.588809 5.602106 1.395194
1 8.106704 4.925486 2.600133
2 7.417743 5.329943 4.842679
1 6.743969 6.181382 5.873949
1 9.298548 5.498720 5.806312
1 7.998277 5.942942 6.499349
2 9.008407 8.154549 8.797358
2 8.438728 6.049159 9.446814
1 8.261700 5.572637 10.456652
1 8.961727 7.544557 0.318013
1 9.297337 6.220401 1.876578
2 8.303731 6.071533 2.277540
2 8.399165 7.451784 4.148946
2 9.600471 6.287760 4.763771
1 8.822194 7.879807 6.631479
2 8.464883 7.604063 8.000718
1 7.385302 7.605616 8.728958
1 8.178908 7.920968 9.638439
2 8.826474 7.718548 10.618511
1 9.273608 7.073992 1.177985
2 8.733306 7.036569 2.444151
2 8.885069 8.354852 2.846565
1 8.975710 7.706416 5.467847
1 7.892141 7.470449 5.171384
1 9.360518 9.434546 6.971597
2 7.408181 8.118876 6.609436
2 8.640560 8.847586 7.726846
2 9.092264 8.721231 9.713324
2 9.365500 8.540174 11.238567
1 7.433773 8.552317 1.143217
1 8.390723 7.815704 1.703887
2 8.813223 8.889233 3.919362
1 9.589045 9.671868 3.978015
1 8.685347 9.531866 5.331222
2 9.049549 10.337955 6.146916
1 8.626862 10.087713 7.471289
1 8.494031 9.433053 8.658896
2 9.153040 10.301729 10.121255
2 8.585807 9.305268 10.541497
1 8.469272 10.135612 -0.107773
1 8.197871 9.190142 0.857258
1 8.818815 9.905263 2.096678
2 7.883292 10.371836 3.415951
1 9.387387 10.509068 3.234542
1 8.685798 11.240160 6.546348
1 8.225170 10.961340 7.852845
2 8.478727 10.825218 9.033670
1 8.337710 11.903660 8.761558
1 8.817855 11.795939 10.470717
1 9.167396 11.651381 0.817479
1 8.968474 11.032499 2.356916
1 10.037114 10.598717 2.222012
2 8.195259 11.275202 4.374865
2 9.857026 11.055854 6.437076
2 7.588466 1.381194 6.448270
2 8.166418 0.507567 7.298735
1 8.839799 1.098912 8.075328
2 7.932721 0.448298 9.857428
1 8.325205 0.059020 11.806999
2 9.220021 1.145186 1.347189
1 7.994522 0.670099 2.581366
2 7.968195 0.866932 3.693386
2 8.345692 -0.480650 5.523015
1 8.728373 1.311949 5.931715
2 9.177993 2.290347 6.398651
1 8.484150 1.544115 7.019791
2 8.059905 2.050442 9.255290
2 8.552937 1.316442 10.283976
1 7.775552 0.668851 11.142646
1 9.373442 1.771476 -0.581955
1 8.292480 1.589797 1.697162
1 9.418231 0.700108 2.404953
2 8.883301 1.027026 4.274925
2 8.429624 2.382123 5.226251
2 7.851490 2.443400 6.213512
2 8.512577 2.681450 7.245005
1 9.123247 4.806453 9.685841
1 9.280667 3.650336 9.724320
1 8.964379 3.193518 10.566782
2 7.952031 2.618789 1.903268
1 8.705324 3.528104 1.691014
1 9.097077 2.161841 3.613499
1 8.639248 3.315806 4.439837
2 7.602229 3.310262 4.910340
1 9.633521 4.578341 6.088921
1 9.334610 3.381967 8.023162
1 8.376549 3.377454 8.871777
1 9.278212 5.275446 8.759224
1 8.252436 4.006344 10.281642
1 9.158194 4.685478 0.423101
1 7.407285 3.714727 1.922028
1 8.436098 3.330879 3.162232
2 7.300504 4.019496 3.938979
2 8.869218 3.307427 5.852574
1 8.677619 4.861728 6.565078
1 8.436624 5.240086 7.578502
2 8.689444 6.059286 8.380493
1 8.136566 5.215028 8.775643
2 7.974367 4.335374 9.244453
2 8.678344 5.647479 1.080244
2 9.027174 4.205492 2.571036
1 7.399178 5.059431 3.528150
1 9.231274 5.266344 4.327044
1 8.280712 5.303132 5.410208
1 9.318329 6.517488 5.961493
1 9.529993 7.125703 7.869647
2 9.560289 6.278051 9.217151
2 9.438598 5.644614 10.273021
1 9.088695 6.498645 10.959965
1 9.752481 5.563656 1.171804
2 10.206649 5.585662 2.277301
2 10.288406 6.747126 1.506560
2 8.710988 6.423649 3.271957
1 10.322880 6.691483 5.883945
2 9.196749 8.790884 6.038193
2 9.549542 7.035212 6.804249
1 9.799563 7.356609 8.978183
2 8.961023 7.014835 9.763426
1 10.801414 8.006283 11.230399
2 11.048615 8.490262 1.382296
2 9.564837 7.735727 1.875128
1 9.810908 6.577820 2.706720
1 10.473343 7.360926 4.752697
1 9.966499 7.640135 5.977591
2 10.768971 9.231544 7.253623
2 9.824993 8.053847 7.002278
1 9.613378 9.183546 8.107506
1 9.684858 9.708352 9.434369
1 10.226161 9.427818 10.735090
1 9.765076 8.446263 0.968425
2 10.290437 8.751073 2.153785
1 10.808723 8.960049 3.675312
1 9.835190 7.614230 2.873733
1 9.552094 8.597135 5.040443
2 10.127230 10.096664 5.073164
1 10.150484 10.144320 7.027020
1 10.542098 10.062345 8.413493
2 10.160935 10.699961 9.302982
2 9.391313 9.783027 11.185845
1 8.777852 10.765420 1.257891
2 9.002811 8.851477 1.778081
1 9.536480 9.333769 2.977805
2 10.176325 10.593155 4.105825
2 10.402626 9.374093 6.160563
1 10.659215 10.801207 5.605382
2 9.761824 12.091765 7.350248
2 9.407640 11.442665 8.695588
1 9.384445 11.353869 9.797204
1 9.128677 10.864240 11.511895
1 12.013307 10.546004 -0.440796
1 9.734785 10.384686 0.896169
2 10.734988 12.461123 2.344909
1 10.085815 11.484940 2.981077
1 9.546018 11.144821 5.470600
1 9.361918 0.569959 6.285644
1 10.587563 1.467024 7.419261
2 9.450276 -1.113121 8.119153
1 8.973608 0.714627 9.471808
2 9.926911 0.994260 10.063037
1 10.760623 -0.750916 1.278281
2 10.114749 0.259047 1.582036
1 8.979454 1.283935 3.148456
1 9.955328 0.400693 4.664365
2 8.820814 0.420267 5.266438
1 10.685949 1.581319 5.152657
1 9.960467 1.475306 6.592475
2 9.690014 1.404714 9.094478
2 9.502793 2.010409 9.990261
2 9.635139 0.819842 11.337069
2 10.396221 2.328541 0.318734
2 9.581570 1.706455 2.201499
2 12.118509 0.575293 4.142172
2 10.770626 3.161601 3.743530
1 9.876407 1.012301 5.441902
2 9.824953 3.167856 6.280784
2 9.513045 1.928113 7.464445
2 9.264529 2.754823 9.187859
2 10.434877 2.675889 9.704421
2 10.041400 3.012553 10.800332
2 10.174978 4.390748 0.804825
2 9.922827 3.444152 1.625157
1 9.310080 2.824277 2.580401
2 9.639555 3.195792 3.758881
1 9.304720 1.903588 4.763339
1 11.000036 3.887508 4.997938
2 9.726727 4.675098 7.565044
2 9.361171 4.198023 8.747641
1 10.099888 4.220203 9.518959
1 9.220375 4.366400 10.741408
1 9.911664 5.283940 -0.210169
2 9.770508 4.530016 1.826858
2 8.466965 4.613464 1.482435
2 8.348639 4.392582 3.859610
1 9.741720 2.871268 4.884011
1 10.833979 4.995352 7.481808
2 9.329543 5.899033 7.407476
2 10.513820 5.603600 9.522734
1 8.861405 5.549016 11.494843
1 9.740362 6.611251 11.754017
1 9.020884 5.215853 2.111010
2 11.839257 4.033720 2.918211
2 9.482358 5.436904 3.168606
2 10.431906 5.075295 4.335303
1 9.510945 4.191462 4.357050
2 10.217075 6.029543 6.650480
1 11.285336 6.211006 7.351299
1 11.094272 6.904342 8.824565
1 11.592754 6.296611 9.744007
2 10.619867 5.891256 10.728414
2 10.699724 6.001396 0.360518
2 11.711088 6.971082 1.367858
1 11.597937 5.575198 1.832187
2 9.673241 7.148887 3.913584
2 10.728763 6.200665 4.810239
2 10.942272 8.046531 6.648389
1 11.952655 7.736517 8.158098
1 10.883253 7.856998 9.333496
1 10.265573 6.580087 10.090151
2 9.794311 7.444584 10.946330
1 10.108260 7.579396 0.437948
2 12.108471 8.086565 1.142233
1 10.893047 6.691986 2.864234
1 10.973305 7.833525 3.433067
1 10.696996 8.250905 5.464010
2 11.741817 8.858495 5.198319
2 12.255242 8.164308 6.893445
2 11.755111 8.732132 8.583145
2 10.007574 8.127980 10.170805
1 11.098238 8.491315 10.343864
2 11.518418 8.707954 0.441567
2 12.034322 10.423379 1.596903
1 11.475856 8.610982 2.978554
2 10.509406 9.104576 4.893934
1 10.146045 8.188614 4.063968
2 11.126752 10.104672 6.626844
2 11.765636 9.260279 7.582809
2 10.622507 8.773703 8.759871
1 10.742057 9.592934 9.829807
1 10.362311 10.446228 10.564142
2 9.316385 9.385329 0.812537
2 11.198025 9.957322 2.213636
1 10.609897 9.925155 3.230471
1 11.117796 9.788142 4.186361
1 11.391678 9.069241 6.262161
1 11.407271 12.495684 6.346277
2 10.785126 11.021891 7.499450
2 11.575771 11.199658 9.591436
1 9.833536 11.295809 10.815073
2 10.756662 10.327363 11.904305
1 10.328184 11.427124 0.165860
2 11.538420 13.075412 1.593648
1 11.079316 10.990241 3.332074
1 10.990904 11.751372 4.342374
2 11.303431 10.024104 5.310769
1 10.477232 0.630289 6.077757
1 11.205418 -0.022269 6.474490
2 10.411645 -0.027463 8.342242
2 10.362656 0.244472 9.474303
2 11.913400 0.989278 11.864708
2 10.603537 1.254168 1.167580
1 11.429239 0.412796 1.169886
2 10.173583 0.845773 3.583916
2 11.131297 0.569718 5.231977
2 11.109315 1.203426 4.103225
1 11.436520 1.984809 6.633000
1 10.963539 1.442082 8.412775
2 10.680077 1.658198 9.523470
1 11.610236 0.697157 9.966943
2 10.653183 1.872584 10.651682
2 10.718268 1.085825 -0.070586
2 10.642321 2.207000 1.845557
1 10.369306 2.522624 3.045928
2 10.197222 2.099528 4.079209
2 11.717320 1.788491 5.659708
1 11.474160 3.270610 5.703027
1 10.254692 3.354713 8.658938
2 10.277032 2.337482 8.258150
2 11.465859 2.802731 9.007619
2 11.214012 2.713456 11.201064
2 12.292841 3.627438 1.866270
1 10.350491 3.608313 2.616418
2 11.795802 2.424267 3.485144
1 12.001346 4.018282 4.876855
1 10.475806 2.618727 5.557175
2 11.272152 3.911162 7.712189
2 11.965058 4.651925 8.629987
1 11.160116 3.774683 9.147130
2 10.997636 3.983634 10.271273
2 10.598506 3.832086 11.367820
1 11.174101 3.109487 0.732262
1 10.982566 3.758947 1.743531
2 10.824593 4.560446 2.570804
2 10.711074 4.254064 3.803983
1 10.968144 4.878641 6.295653
1 11.008102 5.946579 5.886354
2 10.283966 4.960361 8.520480
1 10.274968 6.105172 8.290134
2 10.367529 4.861642 10.441306
1 11.531424 5.033296 11.078292
1 10.768992 5.049291 1.333530
2 11.686778 5.902833 0.669631
1 10.752095 5.780049 3.324285
2 11.568518 5.631808 4.268581
1 10.354166 4.625157 5.396036
1 -0.971101 7.176405 6.958275
1 0.376366 6.683375 8.201903
1 -0.095638 5.563382 8.153425
1 0.607428 5.858019 8.896387
1 -0.610754 6.997115 11.057787
2 0.526900 6.870849 -0.352640
2 0.843641 6.477623 2.156459
2 0.429626 6.199686 3.235421
2 -0.324752 6.895837 3.996520
2 0.595414 7.310128 4.437519
2 0.276904 8.025221 5.944901
2 2.186932 8.268303 9.106868
2 0.850538 8.065452 9.486752
2 0.202359 7.383065 10.186200
1 1.139818 6.658949 9.766396
2 1.347244 7.076993 0.418259
2 -0.684964 7.588478 2.304516
2 0.567393 7.786305 3.430473
2 -0.276511 8.054727 4.519334
1 0.044307 6.884415 5.372320
2 1.500323 7.587481 5.285761
2 1.274602 8.270920 8.287007
2 1.171474 9.380285 9.041407
1 0.356436 9.132380 9.641460
1 0.948827 9.079584 11.274542
2 0.473576 9.903954 0.472153
1 1.346155 7.112245 1.487354
1 1.750348 8.865509 0.906665
1 0.328369 8.973807 4.007268
2 0.769240 9.812666 4.743193
1 1.141210 9.048385 5.857710
2 0.738980 9.734794 6.578995
1 0.216362 9.881855 8.668154
1 0.903925 10.854581 10.170138
1 -0.217610 9.229700 11.034306
2 -1.225412 9.124053 0.495285
1 0.708432 9.416465 1.877039
2 0.459811 10.070327 3.178547
2 1.449975 9.916191 3.598319
2 1.394642 11.421662 4.955910
2 1.273039 10.340075 5.701438
2 0.169812 10.510368 7.761478
2 0.390679 11.330948 8.448128
1 -0.775386 11.484630 10.541629
2 0.583003 11.650914 11.065909
2 1.150839 11.782139 0.800638
1 -0.390124 11.441861 2.165212
1 0.614590 10.811807 3.945672
1 0.306954 10.839056 5.584688
2 1.772420 11.472788 6.098953
1 1.223198 0.410381 7.357708
1 -0.477571 0.547162 7.534323
2 -0.293608 0.601111 8.871408
2 0.202913 1.815912 9.865786
1 1.813377 0.768518 11.411833
2 0.183820 -0.300189 0.413895
1 1.248362 1.826893 1.543308
2 -0.296296 0.561637 3.211543
2 1.216926 0.709285 2.991678
1 0.414983 -0.805639 6.612705
1 1.605040 2.175612 4.599303
2 0.958804 2.477304 6.369502
1 0.192081 1.356803 7.611269
2 0.431568 1.781978 8.799936
2 0.802512 1.841088 11.056845
2 1.041288 2.218564 0.576168
1 -0.159566 1.925823 0.365828
1 0.823751 0.711031 1.831791
2 0.326853 1.411144 2.591785
1 0.495826 1.779872 4.532196
1 0.373320 3.092366 7.538642
1 -0.469182 2.947486 6.886155
2 -0.331273 2.281701 7.736886
2 0.079512 2.946582 10.069989
2 0.905895 3.113653 11.270506
2 1.680857 3.984741 -0.012698
1 0.823938 3.457008 0.813041
2 0.331515 2.639193 1.300727
2 1.359557 3.403011 3.966333
1 -0.308060 2.749500 4.837065
1 0.397552 4.349334 6.742940
2 1.905558 3.503550 7.342076
1 1.139767 4.783042 9.487614
1 0.906792 4.164110 10.653449
1 0.120473 3.971767 11.706340
2 1.000980 4.972144 0.196770
1 1.776723 2.732921 2.302711
1 -0.071764 3.011050 2.338125
2 0.739211 4.880446 3.565604
2 0.850834 4.521991 5.676997
1 1.193168 4.697502 4.553600
1 0.309475 5.344455 7.002024
2 1.090351 5.475675 7.747290
2 -0.210064 4.911788 9.813307
1 0.564379 5.458194 10.250331
1 -0.197493 4.795270 0.501288
2 0.623114 4.547811 1.405920
1 -0.038719 5.304564 2.839268
2 1.396290 5.794563 3.801031
1 -0.214997 5.016619 5.190733
2 0.277564 7.116770 6.944298
2 1.245578 6.366264 6.909264
1 2.079495 6.725219 9.157439
2 2.272893 5.994474 10.582034
2 1.311602 6.005770 11.594283
1 1.893200 6.176253 2.107631
2 1.126869 5.456104 2.506887
2 1.452397 6.608857 3.196596
2 1.205965 8.318143 4.549440
2 1.094267 6.323412 4.817083
1 1.260842 7.326692 6.241554
2 1.195067 7.460667 7.575363
1 2.843141 7.379648 9.262574
2 1.889534 7.084177 10.967156
2 0.358934 8.130485 10.954786
1 2.058933 7.682934 0.846446
2 2.541914 6.975538 1.682089
2 0.709429 8.397472 2.280337
2 1.573296 7.922231 3.587776
1 1.696980 6.393202 5.762170
2 2.346654 8.666238 6.343142
1 1.717425 9.164257 7.078245
2 2.121311 8.874337 8.183200
1 1.489583 8.838841 10.209197
2 1.700200 9.842452 10.912573
2 1.230878 8.091609 0.096555
2 2.129173 7.948652 2.004558
2 1.829987 8.796048 2.854527
2 2.109440 9.194172 4.570137
2 2.169218 9.499352 5.637538
2 2.164718 10.388164 6.544349
1 2.358395 9.732750 7.608222
2 1.753467 10.181236 9.770839
2 2.843222 9.855322 10.015728
1 1.602846 9.932603 11.906092
1 1.367565 10.790879 0.954778
2 3.742089 9.499702 1.588652
2 2.569420 10.133158 1.433500
1 2.777936 9.109917 2.060658
1 1.901939 10.187012 4.840807
1 1.251901 10.602847 7.442929
2 1.252110 9.570271 7.915626
1 1.412348 11.480355 8.616848
2 2.318939 11.155905 9.688244
2 2.567886 9.641267 11.512754
1 1.443576 10.931348 -0.332472
2 0.510364 11.263158 2.716150
1 2.169525 9.918569 2.422580
2 1.743378 11.180172 3.418202
1 2.427057 10.636283 4.160313
2 1.048342 0.852412 6.307790
2 2.583518 1.452515 7.349268
1 0.799274 0.828548 8.144949
2 1.055606 0.733176 9.310384
1 1.263021 0.985394 10.390633
1 1.712680 1.920696 -1.528095
1 1.672782 1.185244 0.781504
1 1.475654 -0.654321 2.221699
1 2.419071 0.967622 2.939651
1 0.661738 0.380167 5.482772
1 1.295751 1.261171 5.257667
2 1.881318 1.256467 8.357433
2 2.025565 2.329052 8.936906
1 3.260058 1.719441 10.038193
2 1.929193 2.006433 11.134366
2 2.226650 2.206742 1.067709
2 1.998091 0.873678 2.014521
1 1.451709 1.778531 2.661046
2 1.772042 0.860121 4.182576
2 2.581050 1.737017 4.968651
1 2.180174 1.887970 6.167509
1 1.319619 3.552633 6.384799
1 0.952141 4.087974 7.714386
2 0.979468 2.529643 9.436129
1 2.223812 2.875317 11.743331
1 2.999488 3.239828 0.995256
2 2.880475 2.912657 2.070625
1 2.477155 2.199787 2.792757
1 2.022800 1.903335 3.577208
2 0.776956 2.851083 5.102036
1 2.534458 3.290106 6.444591
2 2.533140 4.743190 6.445051
2 1.331435 3.497398 8.965663
2 0.455195 3.911086 9.705778
2 1.749198 4.931297 10.865195
2 2.801674 4.061097 0.316380
1 1.996448 4.844007 0.872119
2 1.498807 4.145940 2.725783
1 1.049212 3.210519 3.001677
2 1.460438 3.694557 5.076004
1 0.630587 6.081811 5.857599
2 2.152448 4.704150 7.585828
2 1.585195 6.307973 8.284632
2 2.452738 4.673997 9.615682
2 1.188109 5.890261 12.783089
2 2.123965 5.086235 1.869829
1 2.161738 5.685670 3.029527
1 2.240760 6.684770 3.912412
2 1.872120 4.439842 3.667186
2 1.237677 5.400525 6.565240
1 2.464685 5.960745 5.193516
2 2.211589 5.753993 6.864798
1 1.580619 5.597136 9.136424
2 3.127682 6.326509 9.349472
2 2.867683 6.953348 10.282029
2 2.974519 6.902493 -0.041064
2 3.747844 7.171645 1.333236
1 3.980723 6.053028 1.758668
2 3.213642 7.242332 3.770191
1 3.459499 5.589720 4.875157
2 3.163587 7.701829 6.852922
2 2.378534 6.842420 6.454456
2 2.395666 7.476985 8.223844
2 2.655443 6.403492 8.222147
1 2.395541 7.976761 10.207452
2 3.076390 8.967929 0.946087
1 4.315465 8.343577 1.135587
1 2.603170 6.670723 2.678972
2 2.338514 8.002831 4.489299
2 2.499724 7.295414 5.398410
1 3.035681 8.861681 5.118311
2 2.107170 7.995561 7.265158
2 3.966879 8.611391 7.433573
2 2.512575 9.267434 9.029188
1 1.889161 8.941038 11.465938
2 3.558956 10.032381 0.497152
2 3.510628 8.185102 1.876696
1 2.393115 7.571162 3.044602
2 2.916840 8.829239 3.774686
1 3.453872 7.843290 4.829679
2 3.124819 9.651257 6.665500
1 2.958263 8.750517 7.450536
2 3.427033 9.569558 8.244377
2 3.899583 9.157209 9.926139
2 3.564967 8.842270 11.405339
1 3.110987 11.096598 0.708542
1 3.384892 9.937507 2.619546
2 3.911472 9.213995 3.497607
1 3.731854 8.150045 3.916408
1 3.016309 10.270420 5.171991
2 3.031225 10.609040 7.374943
1 2.397681 11.087259 8.335700
2 1.754911 10.330842 8.611698
1 3.399713 11.443813 9.475973
2 3.066402 10.672262 11.111971
2 2.620850 11.697280 -0.414505
1 2.384462 11.231586 1.551004
2 2.485435 11.177923 2.687886
2 2.638043 10.018930 3.365579
1 2.619344 11.731140 3.756382
2 3.155539 0.270111 7.857472
1 2.352956 -0.066166 7.074282
1 2.290415 0.712839 9.289395
2 2.288151 0.883535 10.345308
2 4.341995 1.096955 9.481084
1 3.347583 0.758648 -1.260860
1 2.079699 -0.225647 0.470364
1 3.181166 0.352406 2.267867
1 3.358691 -0.706691 4.130454
1 2.591737 0.764004 6.189448
1 3.359419 1.580209 6.057936
2 3.030290 3.904325 7.229919
1 3.939917 3.232976 9.288535
1 2.846076 2.620797 9.587910
2 2.897122 1.304009 11.237888
2 2.744753 0.992838 0.964919
2 2.860663 1.760342 1.892394
2 3.649128 2.022061 2.557907
2 3.219260 1.014933 4.364529
1 3.551829 0.718395 5.643744
2 3.665796 2.944663 7.802188
1 1.232056 2.735853 8.245314
2 4.868518 2.276200 9.515439
1 2.359188 3.692714 9.065913
2 2.670255 2.583303 10.673816
1 3.619758 3.634262 -0.601101
2 1.763811 3.626614 1.316763
2 3.509619 2.971976 3.117709
2 2.696711 2.840539 4.457932
1 1.986786 2.685599 5.348661
2 3.668356 4.513869 6.064238
2 2.667110 3.229743 8.166891
1 3.538599 4.374674 9.265431
2 1.748551 3.680486 9.981681
2 2.413130 3.726495 10.789740
1 3.204489 4.475812 -0.932995
1 3.892497 3.360943 0.437705
1 2.736861 4.384537 1.382115
1 2.266306 3.287109 3.189305
1 2.493248 3.864312 5.177403
1 3.255725 5.546666 6.002660
2 3.512581 5.213263 7.103691
1 1.661086 4.618269 8.592341
1 3.316083 5.438027 9.989576
1 3.416563 5.809983 11.025197
2 2.246140 6.233829 0.972522
1 3.071249 5.699187 1.343136
1 2.585900 3.906352 2.352950
1 2.737193 5.340036 4.160834
2 1.967313 5.030881 5.200263
1 3.687713 6.660987 5.453108
1 3.225818 6.486837 7.290405
2 3.738205 5.913090 8.000130
1 4.101215 6.206329 10.080360
2 3.793432 6.127690 12.139355
1 4.632633 6.205089 -0.306518
1 4.784228 5.431130 1.448283
2 3.820020 6.446384 3.070550
1 3.454352 6.285886 4.148700
1 4.662454 6.623455 5.868104
1 4.043697 6.825636 6.595877
1 3.896044 7.386416 8.149576
2 3.156439 8.383252 8.572798
1 3.422372 8.024133 10.164919
2 3.885527 7.237446 10.870342
2 3.332161 7.947291 0.695718
1 3.817310 7.577394 2.773602
1 3.362353 8.490304 2.918298
2 4.350138 7.314318 3.972714
1 3.769190 7.662373 5.949998
1 4.309455 7.647692 7.202859
2 4.128036 10.053715 7.064659
1 5.178413 8.179556 8.005610
2 4.417305 8.404438 10.785788
2 6.268295 8.712490 11.167742
1 2.694223 8.070422 -0.229891
2 5.350787 7.920989 1.880471
2 4.549414 8.760411 2.099488
2 4.499264 8.290523 3.189701
1 4.462069 8.766219 4.603188
1 3.899043 11.340421 5.532534
2 3.192160 10.672811 6.133740
2 4.107825 9.837121 9.056961
1 4.809386 9.987581 9.808119
2 3.897916 9.787034 10.881346
1 4.277616 8.017612 0.152666
2 4.120333 10.311273 3.293053
1 4.651713 9.758306 2.515697
1 4.268002 9.952552 4.438106
2 3.762395 9.566160 5.593167
2 2.845267 11.351065 5.299524
2 3.991255 11.117891 6.669976
1 2.954443 10.446049 9.149095
2 3.887072 10.456202 10.069630
2 4.438963 10.754044 10.881479
2 4.636769 10.065323 1.423711
1 4.440582 10.766749 0.609085
2 3.601750 10.758246 1.566865
1 3.241112 9.612456 4.431564
2 4.374804 11.096963 4.487997
1 4.878409 1.342264 7.201040
2 4.710961 0.047702 7.543824
2 4.283954 1.051707 8.267865
2 4.725484 -0.149126 9.543807
2 3.837081 0.042244 11.351490
1 4.535285 0.226679 0.813472
1 3.530556 1.014315 3.117365
1 4.218095 0.020785 2.101787
2 5.521364 1.384007 3.567569
1 4.879992 0.985901 6.158024
2 3.736544 2.326978 6.713628
2 6.141665 1.673569 7.612044
2 3.693626 0.916895 7.137741
2 3.745686 2.004635 8.949047
2 3.844591 2.478265 10.472496
2 4.166146 1.358218 0.654794
1 4.954644 0.920559 1.499480
2 3.840464 1.022731 1.795622
2 3.209023 2.104800 3.659906
2 3.908988 2.350179 4.711162
1 3.625263 3.132450 5.655419
1 2.180631 2.345833 7.701751
1 4.149123 3.747320 8.142335
1 5.215007 2.766075 10.540564
2 3.184722 2.535660 11.715192
2 3.515146 2.221444 1.145095
2 4.075537 2.960222 1.798871
2 4.978076 2.808232 2.791152
2 4.408838 2.338059 3.670516
1 3.582527 3.533644 4.567534
2 3.983791 3.644738 6.750856
1 2.983296 4.377143 8.330315
2 4.712223 4.477290 8.770415
1 3.357259 3.366235 10.012701
1 4.283951 4.354615 11.645175
1 3.829160 4.780993 1.307773
1 3.635191 3.946119 2.734896
1 2.924879 3.989437 3.912524
1 3.898425 4.454744 4.076063
1 4.532159 3.912043 5.338754
2 4.445754 5.908241 6.912709
1 4.088359 4.688657 7.850998
2 2.640491 5.474004 8.854417
1 4.149016 4.179704 10.259637
2 4.494051 5.155155 10.757954
1 2.652863 5.535764 0.145437
1 2.636129 4.714925 2.907034
2 3.609625 5.327220 3.107127
1 4.476384 6.131367 3.755238
1 3.330320 4.498401 4.909719
1 6.145912 7.066958 6.175485
2 4.711905 6.645681 7.691487
1 4.845284 5.964021 8.737839
1 5.413396 5.513313 10.389265
2 4.996643 7.172888 10.613715
2 6.019870 7.041854 0.610865
2 6.009635 5.842255 1.825985
1 4.563771 6.528909 4.808224
2 4.487173 5.356269 5.637602
2 5.776694 6.066142 5.481172
2 5.659233 7.813929 6.761523
1 6.132300 7.024772 7.488122
1 5.486457 7.414879 9.520334
2 3.995955 7.255327 9.450767
1 4.649077 7.378143 12.322918
1 5.005573 6.776992 1.846827
2 6.115448 7.178837 1.733009
2 5.109113 6.930518 3.247155
1 6.598491 7.402789 5.269109
2 5.637939 7.819748 5.635935
2 4.541731 10.470117 5.972607
2 4.845652 8.900620 6.757518
2 5.319084 9.941582 7.294718
2 4.548649 8.346242 9.597822
1 4.875426 9.391413 11.093232
2 5.455950 7.830604 -0.150040
2 5.944757 10.225359 1.759025
1 5.582616 8.849905 2.547970
2 4.713575 7.639343 5.012137
2 4.535475 8.483128 5.700785
1 5.563881 10.536159 5.958143
1 4.676789 9.317741 8.200448
2 5.971362 9.203557 8.517263
2 5.694676 9.552192 10.441007
2 5.455133 10.805212 10.334429
1 4.388806 9.116383 0.542555
2 6.908072 9.775891 2.713710
1 5.180913 10.206090 3.826083
2 5.114924 9.068818 3.867191
1 4.967467 9.637541 5.460588
1 5.218881 10.966438 6.811479
1 4.125847 10.498545 8.045845
2 4.069232 11.503883 8.524361
1 6.369019 9.965444 9.605334
1 6.725760 10.838217 10.240535
2 5.613100 11.406653 -0.162772
2 5.286350 11.043715 1.323971
1 5.311545 12.258359 2.654538
1 4.997546 12.035705 3.955683
1 4.957920 11.377583 5.806830
2 6.167439 0.193461 6.016736
2 6.349695 -1.041379 7.288897
2 5.423627 -0.094157 8.618449
2 5.373949 1.379625 9.186718
2 4.868067 0.420883 10.732870
1 4.177159 1.270853 -0.777952
2 5.811721 0.360485 0.927166
2 4.652350 1.516183 2.812690
1 3.841681 0.156977 3.585552
2 4.528391 0.639112 4.957301
2 4.534694 2.131011 5.639649
2 5.904743 1.001462 6.751087
2 3.814302 1.870071 7.802586
2 5.074457 1.526872 10.341766
2 4.961836 1.872688 11.433299
1 5.529223 1.720245 1.051849
1 4.504863 1.918193 1.781922
1 6.041850 2.237590 2.867782
2 4.204182 1.268688 4.001459
2 5.403911 2.627706 4.782501
1 4.636031 3.249136 4.332055
1 4.833561 2.999693 6.236578
2 5.063705 2.339737 8.302501
1 5.236027 3.206280 9.066756
1 6.128084 3.203272 10.051460
1 4.859922 3.214016 0.031239
2 4.510026 2.493591 0.710597
1 5.237530 3.716331 2.342096
1 5.513248 3.229208 3.569276
1 4.553981 3.531313 3.261471
2 6.357292 4.096363 5.795445
1 4.848748 3.897114 7.255478
1 5.745482 4.771728 8.601016
1 5.215220 4.970626 9.505742
2 5.015056 4.040546 10.946881
1 5.613611 4.008788 0.403613
1 4.718210 3.646195 1.142790
1 4.317358 4.561222 2.287615
1 5.345833 4.000143 4.420958
1 5.261539 4.623905 5.606857
1 6.114612 5.479584 6.432875
1 4.987071 5.022127 6.593967
1 6.022425 4.782339 7.375986
2 4.029268 5.492240 9.059297
1 5.827899 4.703835 11.210883
2 5.072071 5.108925 0.564063
1 6.283207 5.118622 0.696372
1 4.740390 5.790935 2.628097
1 5.695873 5.960655 3.481031
1 5.194905 5.296303 4.742580
