1000
Lattice="11.262478804436059 0.0 0.0 0.0 11.262478804436059 0.0 0.0 0.0 11.262478804436059" Properties=:species:S:1:pos:R:3 Time=1000
2 6.777119 5.277381 6.526100
2 5.615624 5.404275 6.930545
2 6.231474 6.091780 8.844379
2 5.300032 6.050021 9.862232
2 5.790923 5.701828 10.920254
2 5.832789 6.457594 0.414088
2 6.610563 6.736314 1.843937
2 5.860823 6.627294 3.374980
2 7.593999 6.343881 3.588203
1 5.741134 5.597360 4.841380
2 5.685924 7.810308 6.622911
2 6.656788 7.488947 7.249296
1 5.662326 8.697022 8.250910
2 6.986904 7.960044 10.022674
2 5.949892 7.856349 10.433464
1 6.049002 7.515155 0.419229
2 5.690510 8.150489 1.659391
2 6.279418 8.487185 2.910157
2 6.473574 6.909145 4.715056
2 5.359008 8.584931 4.076377
1 4.862976 8.402808 6.039958
2 6.745480 8.193458 6.115020
1 7.157882 8.068247 8.072397
1 6.319638 9.339186 9.350109
2 5.520497 6.887674 10.721341
1 5.469351 8.496949 0.242082
2 5.442545 7.351731 2.459080
2 7.255639 9.447789 3.019215
1 6.528838 8.914153 3.859712
2 6.812458 9.624711 6.237339
1 7.074219 9.985551 4.933257
2 5.913654 8.985798 6.245853
2 4.392466 8.747683 6.882271
2 6.723355 10.492611 10.042295
2 6.411042 9.011354 10.447433
2 6.125148 9.284006 0.239134
1 6.155772 9.159111 1.931374
2 6.652995 10.432120 3.079849
2 6.255395 10.059961 4.300968
2 6.930048 7.962388 4.506986
2 6.187785 11.176080 6.544908
1 6.635388 9.729310 7.402133
1 6.454591 10.689386 8.920477
1 6.081487 11.520035 9.564360
1 6.603993 10.196816 11.091589
2 5.661907 10.541970 0.387396
1 5.554625 10.019121 2.486627
2 5.441115 10.602719 3.814444
2 5.290899 10.262082 4.983787
2 5.189625 11.054919 5.721751
2 6.065468 1.062920 6.278672
2 6.386992 0.950704 7.297192
2 6.990944 0.893455 8.183946
1 5.905167 1.416140 8.252372
1 7.131110 0.115689 10.378035
2 6.460858 0.021483 -0.070984
1 5.969208 -0.424705 2.014462
2 5.979535 0.444058 3.013786
2 6.355729 0.013157 4.117613
2 5.574666 1.137026 5.216727
2 6.614351 2.076439 6.660457
2 5.813596 2.555711 7.449680
1 6.672607 2.090695 8.013052
2 6.058149 1.641683 9.351770
2 6.116408 0.879334 10.413073
1 6.628483 1.435472 0.032646
2 6.332400 1.441787 1.060310
2 6.921727 1.292625 2.199255
2 6.488233 1.479332 3.163178
1 6.065035 2.512830 4.879866
2 5.903169 2.953253 6.335839
2 5.392934 3.615693 8.129121
1 6.061316 2.623279 8.724481
2 5.509530 3.180886 9.546878
2 6.233343 2.668529 11.151747
2 5.538507 3.548374 0.530955
2 6.883970 3.558036 1.554919
2 5.617889 2.438032 1.749353
2 6.015254 2.733384 3.816576
2 6.295283 3.566194 5.008618
2 6.859984 3.849961 6.100116
1 5.753298 4.641320 7.988421
1 6.482625 3.302315 7.991494
2 6.232684 4.368315 8.868920
2 5.654911 3.972129 10.429624
2 6.613120 3.826695 -0.031431
1 5.740873 4.107361 1.571518
2 5.503867 3.388890 2.741373
2 6.039046 4.867748 3.080983
1 6.278496 4.939075 4.239500
2 5.246985 4.009277 5.246718
1 6.612224 5.586193 7.580666
1 6.914790 5.171028 8.488201
2 5.531497 5.146349 8.854596
1 6.628232 4.457477 10.148876
2 6.886296 5.719888 -0.055610
2 6.960656 5.738199 1.222301
1 5.989072 5.996862 2.087733
2 6.700204 5.854029 3.420321
2 5.799914 4.709392 5.844828
2 7.451624 5.928094 7.033873
2 6.348779 6.320854 6.580789
2 7.723735 7.001274 7.245045
2 7.587877 7.145251 9.707992
2 6.544850 6.572706 10.575981
2 6.978742 6.812454 0.354425
1 7.662504 6.646865 1.218709
2 7.412278 6.008754 2.436314
2 8.113418 5.322136 3.838901
2 6.606973 6.113875 5.450458
2 7.343420 6.859439 6.174950
2 7.963177 8.141860 7.279432
2 6.645935 6.701613 8.093198
2 6.426524 7.069438 9.424447
2 8.017293 7.800434 10.489027
1 7.803923 7.519816 0.271386
2 7.016964 7.667812 1.084441
2 6.776398 7.145017 2.825226
2 7.935119 7.488276 3.547356
2 5.856224 7.113572 5.875091
2 7.759997 7.634986 5.495653
1 7.186604 9.047006 8.729072
2 6.267096 8.317119 8.917399
2 8.019096 8.911866 10.041781
2 6.885049 7.879441 11.199873
2 8.122828 8.492370 0.264918
2 7.209844 8.702378 2.002185
1 7.991493 8.126701 2.635462
1 7.144441 8.306838 3.432854
1 7.796821 8.706804 6.361738
1 8.762143 9.220206 5.391570
2 7.649808 9.372016 7.209526
2 8.333719 9.215956 8.709418
2 7.848952 8.258662 9.218900
1 7.210032 9.630058 10.094420
2 7.141270 8.736964 0.827740
1 6.813810 9.563699 1.238958
1 7.332377 9.935759 4.030547
2 8.239388 10.026231 4.783581
1 7.943298 10.139478 5.695780
2 7.300081 10.492110 6.614790
2 7.426730 11.683530 7.118872
2 7.590519 10.662950 7.887890
2 7.331202 10.074732 8.948598
1 7.780345 10.746671 9.994363
2 6.734018 10.770699 0.888716
1 7.640976 11.482841 2.209370
2 7.542539 11.166671 3.319890
2 7.313306 11.102553 4.760222
2 6.323730 10.730523 5.170001
2 7.208217 0.038270 5.935614
1 7.140518 1.030239 6.196896
2 7.313265 1.477348 7.275417
2 7.260557 1.232068 9.390110
1 7.260310 1.115626 10.552860
1 6.882461 0.482990 1.509189
2 7.862788 -0.079472 1.179627
2 7.945010 2.058210 0.368134
2 7.395355 0.812167 4.073334
2 6.597715 0.550978 5.085338
2 6.835221 1.781798 5.381668
1 7.494895 2.613505 7.697331
1 7.171553 2.253776 8.830610
1 7.661645 2.973948 9.813955
1 6.399178 2.034980 10.329920
2 7.374588 2.475306 -0.664004
2 7.012350 2.345929 1.444763
1 7.714426 1.154206 1.385493
1 7.525023 1.815183 3.327235
2 7.471371 1.948801 4.397006
2 7.255335 2.972835 5.279489
2 6.889570 3.008298 6.773253
2 7.504199 3.656699 7.836744
2 6.438040 3.176556 10.028341
2 7.085800 2.709847 11.691999
2 7.865867 3.063901 1.147426
2 7.726644 3.812864 2.262534
2 6.816359 2.599913 2.919254
2 7.563393 3.457964 3.296962
2 6.955944 3.382514 4.179307
2 7.823637 3.838688 5.455396
2 6.734146 4.405000 7.630413
1 6.919839 3.494095 9.071997
2 7.224461 4.520270 9.361653
2 7.676990 3.998175 10.345089
1 7.479646 4.073622 0.860005
2 7.646348 4.963813 1.455475
2 6.680518 4.003559 2.716664
1 7.113616 4.666689 3.369400
2 7.374303 4.648204 4.603940
2 7.723340 4.536263 6.423612
2 7.868799 5.252500 7.697701
2 7.528864 5.745473 9.172403
2 6.575334 5.429648 9.806735
2 7.609327 4.956744 11.324197
1 6.683884 4.843675 0.678181
2 7.941725 5.979007 0.310574
2 6.881134 5.028949 2.328589
2 7.126512 5.662265 4.678692
2 6.826495 4.821927 5.418573
2 7.769731 5.894277 5.714474
1 7.506546 6.092095 8.128824
1 8.817938 6.284129 8.878460
2 8.437383 6.372025 9.982487
2 7.740484 6.817767 10.757253
2 8.757387 6.817128 0.601005
2 8.361858 6.013188 1.709146
2 8.180585 5.338363 2.518015
2 8.433687 6.109246 4.681828
2 8.527407 6.809699 5.438784
2 8.961582 7.951349 5.470177
2 9.070449 7.734577 7.440979
2 7.872804 6.948966 8.698133
2 8.967760 7.513494 10.297442
1 9.539764 5.961404 12.306440
2 8.292306 7.869783 1.227318
2 9.269701 7.267347 2.653659
2 7.980441 7.179013 2.253226
2 8.383196 7.480062 4.569453
2 7.497948 6.600941 4.781832
2 8.796796 8.672334 6.619564
2 6.568640 8.683889 7.277053
2 9.318813 8.561838 8.071117
2 9.122315 8.472053 9.258449
1 9.255796 8.410654 11.406672
2 8.946538 9.166409 0.951565
2 8.582900 8.695067 1.857987
2 8.091502 8.823385 3.601447
2 7.558619 8.927482 4.512006
2 8.869114 8.795938 4.463877
2 8.602617 9.919970 6.501424
2 9.106216 9.486016 7.549020
1 8.282492 8.285200 8.241576
2 9.479408 10.560706 9.123920
2 8.655008 9.909555 9.698801
2 7.433088 9.289569 -0.103505
1 7.876876 9.346971 1.158286
1 8.217122 9.665829 2.219743
2 8.503338 9.840741 3.659911
2 9.022135 10.425932 5.594661
2 8.150900 11.856055 6.297725
2 8.567477 10.394994 7.476998
2 8.480688 10.788927 8.628693
2 8.690133 11.403960 9.690798
2 7.830168 11.597895 11.169068
2 8.566172 10.264161 0.881179
2 7.379471 10.476474 2.034068
2 8.610101 10.750100 3.100903
2 8.411415 11.366454 5.179859
1 10.070206 10.669129 5.987288
2 8.481096 1.446237 5.927622
2 8.694663 0.448476 7.533265
2 8.010568 0.436963 8.301183
2 7.221168 0.139570 9.196910
2 8.599085 0.798372 10.645740
1 8.704756 0.625718 0.948226
2 8.691959 0.488921 1.975043
2 8.426652 0.574256 3.457971
2 8.566023 -0.181064 4.164263
2 9.408221 0.260605 5.630456
1 8.502870 2.667906 6.130793
2 7.575397 2.029046 6.239976
2 8.058733 1.782689 8.166671
2 8.294393 1.161947 9.168676
2 8.147844 1.913403 10.120146
2 9.162056 2.607409 0.424495
2 8.143453 1.402865 2.399771
1 9.301981 1.101103 2.935831
2 9.753545 1.721977 3.936152
2 7.899033 1.155475 4.984945
2 7.964360 3.434142 6.783880
2 8.751911 2.594466 7.269453
1 8.408533 2.868992 8.401283
2 8.599265 3.111053 9.940730
2 8.275577 3.074047 11.094532
1 9.436852 2.885921 -0.638330
2 8.721220 3.272945 1.864367
2 8.617026 1.563455 3.730963
2 8.197440 2.581484 3.626867
1 8.093512 2.282752 5.273225
2 8.934505 4.165681 5.809006
2 9.280509 3.702182 7.106810
2 8.474365 4.161393 7.959937
2 8.349985 4.874860 8.846236
2 8.148201 3.894494 9.190866
2 8.673119 4.522758 0.232846
2 8.409394 3.994846 1.197773
2 7.649426 2.557485 2.344211
2 8.031177 4.435239 3.075576
2 8.441331 3.173609 4.824772
2 8.353019 4.834332 5.076457
2 8.472972 5.444609 6.370148
2 9.332489 4.469026 9.225628
2 8.614865 5.236628 9.778640
1 7.656709 5.116968 10.146271
2 8.621239 5.678980 -0.427855
2 8.853041 4.339834 2.271488
2 9.263777 5.518925 2.000986
2 9.115116 4.958578 3.139250
1 7.988001 3.888804 4.152505
2 9.365222 6.379545 5.943773
2 8.597603 6.527231 7.664600
2 9.524225 6.998973 8.116445
2 9.579413 5.707196 9.763214
2 9.427307 6.477330 10.570755
2 10.418524 6.379272 0.383567
1 9.175294 6.780246 1.730272
2 8.534580 6.450153 2.876667
1 8.929786 5.898520 3.753026
2 9.166239 5.500827 5.260095
2 8.588758 7.386708 6.427009
2 9.934466 7.330431 6.761139
2 8.702256 7.413283 9.162927
2 9.971851 7.732920 9.851596
2 9.693441 7.327155 11.274041
1 9.327931 8.102895 1.479969
1 10.142327 7.061132 2.140694
2 9.613154 6.095305 3.025320
2 9.230205 7.031475 3.724614
1 9.702256 6.720436 4.701688
2 9.855609 8.385338 6.744870
2 10.390419 8.876850 7.544293
1 9.997639 7.935895 8.770161
2 10.181932 8.823073 9.678304
2 9.240180 8.598448 10.353812
2 10.308499 8.191228 0.972410
2 10.051212 8.253918 2.249327
2 10.341810 8.894265 3.280427
2 8.993126 8.300509 2.812476
2 9.940250 8.725533 5.631208
1 9.938071 10.051185 5.196750
2 9.837604 9.627252 6.327360
1 9.420519 9.586915 8.784645
2 9.424115 9.637496 10.458250
1 8.550674 9.375029 11.031144
2 9.783262 9.810743 0.306699
1 8.727927 10.574338 1.946731
2 9.463618 9.226199 2.339123
2 10.676355 9.981898 3.425480
2 9.824737 9.273555 4.319231
2 10.928352 9.949504 5.949843
2 9.770142 12.035873 7.516686
2 9.502170 11.064677 8.054158
2 10.472749 11.307819 8.610769
1 8.614356 10.440862 10.878739
2 9.236291 11.320094 0.119520
1 9.658846 9.953650 1.350953
2 10.183931 10.290982 2.524526
2 9.652373 10.502007 4.012879
2 10.804054 10.003459 4.648003
2 9.170399 -0.150857 6.644937
2 9.281435 0.984540 6.590740
2 9.056624 1.454757 8.087518
2 9.068627 0.485273 8.739736
2 9.683311 0.492764 10.038828
2 9.772679 0.964479 -0.257046
2 10.628017 0.354137 2.514145
2 9.611784 0.036887 2.977404
2 9.621789 0.663494 4.458521
2 9.675214 1.279392 5.351402
1 9.413259 1.962664 6.195409
1 8.412960 1.436328 7.171670
2 9.881531 2.026261 8.701781
2 9.178937 1.564890 10.121588
2 8.870282 1.747355 11.195034
2 9.581207 1.891428 1.185455
2 9.809185 1.062626 1.934906
2 9.184364 2.301185 2.496560
1 11.100750 1.726709 3.444099
2 9.027145 1.848324 4.766416
1 9.904042 2.785406 6.526728
2 9.519783 2.861249 7.948419
2 8.874062 2.167579 9.300679
2 9.937564 2.266326 9.701610
2 9.938603 2.020384 11.223051
2 10.593835 2.353037 0.963461
1 9.645378 3.355743 1.243057
2 8.822615 3.331437 3.090191
2 9.640564 2.791034 4.115870
2 9.356368 2.657196 5.274129
2 10.518365 4.796055 5.978701
2 9.595451 4.676522 7.306584
1 9.597929 4.177450 8.253061
2 9.311608 3.088645 8.974709
1 9.389941 3.877858 10.082568
1 9.541557 3.728774 -0.085141
2 9.668813 4.401590 1.299003
1 9.813744 4.681623 2.303095
2 9.234748 3.847329 3.892624
1 10.303640 3.061955 5.353734
2 9.437194 5.064582 6.249325
1 10.287514 5.623180 7.593436
2 9.157940 5.522004 7.932368
2 9.348624 4.849497 10.591940
2 9.568506 5.339592 11.498180
2 8.774773 5.017521 1.141272
1 11.188283 4.970092 2.201277
2 10.125142 4.712300 3.579212
2 9.625682 3.676762 4.895118
2 9.887310 4.752624 4.699378
1 9.425535 6.142710 6.987544
1 10.618566 6.658602 7.719209
2 10.703454 6.940328 8.863313
2 10.844826 6.094690 9.695300
2 10.251070 5.799603 10.662132
2 11.467206 6.702071 0.805358
2 10.305221 6.084020 1.865058
1 10.466322 5.313577 2.667254
2 10.005481 5.764976 4.094186
2 10.486280 6.464450 5.479514
1 10.847208 7.021840 6.480318
2 10.446616 7.820926 7.629703
2 9.552133 6.815102 9.380509
2 11.095848 8.074102 10.042013
2 10.697263 7.422769 11.459549
2 9.967674 7.058320 1.049913
2 11.427510 6.551341 1.963422
2 10.122537 7.689502 3.218746
2 10.661831 6.948012 3.950716
2 10.058801 7.547257 5.488730
2 11.087298 8.053928 5.926572
2 11.371198 7.952309 7.008665
2 11.206973 9.027957 9.216447
2 10.243911 8.282185 10.979827
2 10.649485 9.143812 11.510502
2 11.572707 8.331957 0.528525
2 11.734388 9.486802 1.257342
2 11.050396 7.601981 2.169318
1 9.592502 7.895037 4.542839
1 11.002906 9.001842 4.221208
2 10.799512 8.960114 6.543387
1 10.002428 10.319401 7.618010
2 11.151072 7.931825 8.512873
1 10.471585 10.010872 9.300197
2 10.626265 9.431851 10.331708
1 10.578880 10.196327 0.898026
2 10.644578 9.074469 1.600614
2 11.197814 9.811261 2.482841
1 11.433280 9.164503 3.291034
2 10.936122 9.004130 5.259605
2 11.048918 10.997330 6.120509
2 10.656287 11.080354 7.329077
2 11.441544 11.540336 7.826334
1 9.588540 10.606940 10.250788
2 10.869968 10.659370 10.933096
2 10.333493 11.218446 0.425801
2 10.830851 12.941364 1.746443
2 10.616716 11.132055 3.667778
2 10.274574 11.093660 5.028032
2 11.500423 10.859965 4.666069
2 10.295528 0.481875 6.479178
2 11.190335 1.346558 7.072923
1 10.385914 1.179593 8.273938
1 9.737638 1.149870 9.252448
2 10.644764 1.726204 10.300956
2 11.437282 0.431181 0.113316
2 9.775800 -0.111440 1.353672
2 10.240747 1.703171 2.801344
2 10.673158 1.077893 4.496075
2 10.709143 0.633420 5.473141
2 10.350575 1.516443 6.162669
2 9.972706 1.928936 7.231134
2 10.794339 1.863999 9.194305
2 11.905222 1.427803 10.627666
2 10.931379 1.426986 11.514736
2 10.046798 0.955290 0.842448
2 10.211723 2.645798 1.924528
2 11.493024 2.203444 2.506042
2 10.745416 2.810695 4.302865
2 10.376269 1.989977 5.097705
2 10.953692 2.325000 6.847003
1 10.672629 4.007204 7.209628
1 11.061683 2.997612 8.796521
2 11.395453 2.417105 9.858734
2 10.488949 3.014877 10.577048
2 10.841981 3.557993 0.957851
2 9.774343 3.547164 2.526416
2 10.249369 2.667771 3.138558
2 11.504250 3.480273 4.052655
2 11.003262 2.569747 5.743286
2 11.159134 3.620605 6.261324
2 11.464764 4.521595 8.143399
2 10.428533 3.599778 8.367948
2 10.684126 4.108816 9.281071
2 11.274321 4.749999 10.390014
2 11.744713 4.144872 1.381473
2 10.729783 3.668164 2.080088
2 11.270025 4.220829 3.015426
1 10.456074 3.713703 3.836708
1 11.471973 4.580399 5.667488
2 10.954607 5.402719 5.315196
2 10.631589 5.675654 6.550719
2 9.973759 5.833144 8.788255
2 10.245651 4.894067 9.853844
2 10.247495 4.466042 11.127627
2 10.593307 4.741465 0.792263
1 11.062858 5.661006 1.218442
2 10.606865 6.508017 2.875632
2 10.921131 3.908383 4.920545
2 11.222767 6.187864 4.337528
2 0.225663 6.418731 5.864073
2 0.360683 6.955932 8.124600
2 0.748603 6.089696 8.745534
2 1.350517 5.171709 9.610250
2 -0.814300 6.980014 10.508182
2 0.126946 6.370026 -0.547037
2 0.983679 5.854139 1.825713
1 0.308247 6.118276 3.062358
1 -0.105030 5.342622 3.650365
2 0.880344 7.356693 4.294039
2 -0.064058 7.230168 5.216663
1 1.141671 7.721191 7.597779
1 0.204497 7.193326 9.657462
2 1.130448 7.800336 8.955397
2 0.850210 6.386903 9.788945
2 1.057854 7.180364 0.574373
2 1.118236 6.676399 2.609661
2 0.918713 7.877953 2.581568
2 0.155639 7.270682 3.136330
2 -0.491362 7.916416 4.606546
2 0.536803 6.729739 7.023480
2 0.940073 7.879029 6.474454
2 0.613524 8.605989 8.231813
1 1.228278 9.342860 9.057715
2 0.697802 8.642292 10.597230
2 1.351777 7.940411 -0.208123
2 0.641543 7.540106 1.447669
2 0.330680 8.842814 2.072604
2 0.325054 8.186282 3.666269
1 0.704001 8.414386 5.446800
2 0.487017 9.167434 6.165419
1 0.263572 9.090184 7.284678
2 -0.124471 9.710642 8.126077
1 1.830383 10.245459 8.670919
2 0.502064 10.151709 10.275664
2 0.268921 9.720467 0.078202
1 1.397429 8.938937 1.757951
2 0.313810 10.753336 2.946698
1 1.092763 9.230197 2.932714
2 0.924856 9.065890 4.484973
2 0.808876 10.486522 6.047552
2 0.344664 10.610570 7.204051
1 0.132639 10.727183 9.362791
1 -0.834595 11.074706 9.734789
2 1.229086 11.780654 11.145298
2 0.482581 10.581838 1.713579
2 0.302399 12.273804 2.267603
1 0.970627 11.458094 3.000149
2 0.596030 10.071000 3.964305
2 1.321890 10.624262 4.983311
1 1.963155 0.025074 5.693472
1 0.200037 1.091132 8.668063
2 -0.311979 0.808154 9.518086
2 1.811878 2.014284 10.266740
2 0.987469 1.386771 11.836033
2 -0.040382 0.457807 1.282376
2 1.310231 0.587920 1.190325
1 -1.051551 0.878673 3.377101
1 0.312338 0.532544 4.351971
1 0.573896 0.222896 5.595219
2 1.308294 1.887909 6.568230
2 0.761317 0.602842 6.669565
1 0.909638 0.995151 7.744638
2 0.576333 2.134055 8.591733
2 -0.023796 2.380396 11.048758
1 1.422894 2.224035 1.161111
1 0.381447 2.130238 0.717342
2 1.001659 1.419140 3.003332
2 0.613393 2.347591 3.491589
2 0.364701 2.183756 5.021153
2 1.074484 2.744925 5.629478
2 -0.555747 2.129815 8.013159
1 0.167898 3.087866 7.649731
1 0.663154 3.188012 9.310128
2 0.975995 2.706168 10.855420
2 0.703237 3.411168 0.439459
2 0.655764 2.825839 1.586605
1 0.317899 3.292877 2.654623
2 1.238500 3.280272 3.427512
2 0.858747 3.584844 4.891338
2 0.288397 4.765299 6.710934
2 0.820275 3.629576 8.367097
2 0.456901 4.278207 9.166650
2 0.244077 3.416162 10.471568
2 0.082545 4.336826 11.447621
2 1.507069 4.317317 0.304712
2 1.551942 3.841249 1.565828
2 0.958367 4.056081 2.397628
2 0.556498 5.206753 4.506334
1 0.726382 2.979571 6.551777
1 1.034494 3.822546 5.900451
2 0.215209 5.491799 7.457567
2 -0.259559 5.857759 8.393359
2 -0.912093 4.885310 8.580619
2 -0.009660 5.195588 9.316116
2 -0.078598 5.370407 0.081174
2 1.330744 4.823669 1.673457
2 0.774427 5.228817 2.909879
2 1.078761 6.018341 3.824797
2 0.921741 6.312335 4.948620
1 1.478744 6.361862 6.134123
2 1.709865 6.795909 7.033861
1 1.144765 5.241730 7.945118
1 1.870638 5.791507 8.766774
2 1.721721 6.884069 10.605044
2 1.617907 6.650396 1.445209
2 2.019079 6.022813 2.376487
2 2.050672 5.218132 3.819765
2 1.929369 7.113250 4.317609
1 1.888646 5.614652 5.395016
2 1.983394 7.419030 5.883676
1 2.251228 7.080042 7.924463
2 1.656530 6.773150 9.209200
2 2.537645 7.562914 8.980474
2 0.397058 7.474269 10.808646
2 1.758080 7.614896 1.935364
2 2.182464 6.291840 3.471309
2 2.130196 7.634786 3.207463
1 1.317286 8.169241 3.579065
2 0.963123 7.206723 5.570680
2 1.465795 8.904870 7.422807
2 0.953442 9.904566 8.065458
2 1.961846 8.079692 8.104801
2 1.941990 8.626053 9.325959
2 1.212390 7.691097 10.076157
2 1.643364 8.326851 0.765181
2 1.836942 8.524517 2.626989
2 2.290963 8.393212 4.046565
1 3.004490 9.242134 4.530843
2 1.664304 8.835694 6.236120
2 1.957917 9.166642 5.091635
1 2.600788 9.867907 6.556302
2 2.094711 9.329572 8.302590
2 1.411782 9.465104 10.070683
2 1.445150 10.706079 10.645169
2 1.226333 9.251771 0.404307
1 1.738523 10.035859 0.570072
2 1.187226 9.929161 2.064278
2 2.624784 9.754320 3.331089
2 0.480762 9.763874 5.167424
2 1.093666 9.748842 6.904618
1 1.186481 10.836254 7.702462
2 1.068441 11.597429 8.645957
2 1.311107 10.633620 9.486806
2 2.412699 11.070275 10.828619
1 0.464818 10.755564 0.330260
2 1.515170 10.933604 1.874741
2 1.998288 10.491776 3.032277
1 1.418336 11.045730 3.764497
2 1.814167 10.063229 5.768495
2 2.255209 0.902200 5.229026
2 1.820009 0.462268 7.457653
2 0.967916 1.638458 9.457911
2 0.770343 0.439185 9.850776
1 1.973601 0.358894 9.674472
1 1.981700 1.422854 -0.079406
2 1.601734 0.588448 2.273633
1 0.124641 0.653046 3.325976
2 1.920020 0.838988 3.340479
2 1.532151 0.401218 4.600758
2 1.073281 1.294197 5.291388
2 1.836767 0.923296 6.313610
1 1.987923 1.352777 8.505404
2 2.181765 1.370663 9.525105
1 1.834914 2.599639 11.366816
1 2.644254 2.178525 0.636510
2 1.441426 1.701314 2.012527
2 2.404536 1.421856 2.363868
1 0.791721 1.439424 4.069129
2 2.204493 1.537385 4.272775
2 2.022805 1.458245 7.376864
2 0.681188 2.095934 7.412301
1 1.531111 2.466321 8.973749
1 2.370030 4.298587 9.945395
2 2.201086 3.172494 10.439858
2 2.416525 3.329173 0.622684
1 1.882157 2.864781 1.809657
2 2.408230 2.483552 2.693217
2 2.764884 2.510208 4.339970
2 1.426597 2.668544 4.569621
2 2.075149 3.132621 6.288730
1 1.592940 3.405408 7.106524
2 1.787649 2.482998 7.891447
2 1.586359 3.838595 9.448226
2 2.310856 5.240548 10.621887
2 1.077709 5.065755 -0.321950
2 1.422861 4.071183 -0.758372
1 1.315287 2.410493 2.649729
2 0.944549 4.439454 3.793510
1 2.010600 3.496846 5.074545
2 0.886278 5.377449 6.031899
2 1.494799 4.567258 6.671215
1 1.085158 4.154795 7.555189
2 1.343903 4.559484 8.645372
2 1.286136 6.148626 11.220853
2 0.890521 5.592033 0.693901
2 2.223119 5.681985 1.368145
2 1.734517 4.679990 2.839917
2 1.986757 4.069958 4.114739
2 1.296593 4.611834 5.125181
2 2.717933 6.839747 6.823742
2 1.264091 5.780391 7.047679
2 2.454048 5.719358 7.882002
2 3.434969 6.036932 9.769414
2 2.203394 6.129976 9.909869
2 2.363663 7.334667 0.475900
2 3.060133 5.926478 2.050292
2 3.120679 5.779439 3.169734
2 2.645230 6.067591 4.574403
1 2.315350 6.617819 5.455652
2 3.065126 7.489444 5.739962
2 3.065219 6.629437 8.436971
2 3.363530 7.728573 8.035989
2 2.973620 6.754171 10.515985
2 2.672895 7.840567 10.028201
2 2.788022 8.048175 -0.157227
2 2.862293 7.243134 1.371030
2 2.943612 7.003722 2.713000
2 3.025104 7.062525 4.298129
1 1.749016 8.085383 5.031043
2 2.704837 8.534412 5.964802
2 2.309496 7.903968 7.045784
2 2.923177 8.611774 8.557670
2 3.143012 8.829730 10.218035
2 2.777469 9.184277 11.547573
2 2.291992 9.383402 1.243567
2 3.048478 7.917845 2.188598
2 2.822570 8.677040 3.043039
2 3.991014 8.314404 4.323627
2 2.905459 8.238757 4.905969
2 3.065019 10.024625 5.282817
1 2.657806 8.986728 7.091896
2 2.518316 9.607921 9.831284
1 3.633619 9.725856 9.647477
1 1.976048 8.849743 10.897599
2 2.858836 10.463865 0.588342
2 3.304634 9.703229 1.879228
1 2.215138 9.537635 2.322096
1 4.076907 9.015728 3.324753
2 1.964843 10.056199 4.305018
2 3.155523 10.744361 6.950173
1 2.833844 11.673365 7.820276
2 1.999145 10.272905 7.388876
1 2.398099 10.669714 9.687376
2 2.313171 9.937661 10.915435
1 3.245439 10.331475 -0.827942
2 1.811288 11.135455 0.566353
2 2.966340 10.529523 2.648597
1 2.657592 11.031412 3.644044
1 2.597784 11.082929 4.932551
2 2.763959 0.268339 6.374294
2 3.881916 0.432142 7.341396
2 2.284514 -0.011537 8.661071
1 2.978398 0.468923 9.565042
2 4.305685 1.135349 9.194955
1 3.962112 0.645385 0.727373
2 2.889975 0.282728 0.544709
2 2.888912 0.392336 2.859211
1 2.454057 0.516005 4.195016
2 3.451323 0.732417 5.355863
2 2.944853 1.511635 6.572386
2 3.199688 2.808178 6.490261
2 2.954004 1.315254 8.687675
2 4.342891 1.602326 8.264281
2 2.569767 0.900085 10.519726
2 3.071150 1.423335 0.106415
1 2.425947 1.441142 1.154144
2 3.552350 1.626564 2.465268
2 1.845622 2.314921 3.582154
2 1.982902 1.995104 5.455557
2 2.737346 3.627197 7.231504
2 2.578002 2.574047 7.304861
2 2.851366 2.612957 8.434582
2 2.678852 2.347793 9.454870
2 2.828375 2.245299 10.703921
1 3.258578 3.483526 -0.002685
1 2.788753 2.372712 1.689279
2 2.035154 3.635863 2.565636
2 3.121980 3.809069 2.651635
2 2.837694 2.777742 5.484647
1 3.193806 3.940816 6.075308
1 3.269014 3.678462 8.174807
2 2.057305 3.650908 8.168511
2 3.129670 3.475782 9.200170
1 3.205680 3.298612 10.261095
2 2.445144 4.106179 -0.176093
2 3.208887 3.387407 1.366589
2 2.371665 4.350514 1.081901
1 2.382842 3.238771 3.462693
2 2.979057 3.985967 5.014922
2 2.766347 5.277630 5.906313
2 2.925940 4.636802 6.769492
1 2.182336 4.549328 7.657656
2 2.565825 4.594519 8.794146
1 2.453145 6.165683 11.252189
1 2.231691 5.212233 0.455575
1 3.280228 4.858135 1.279011
2 2.538058 4.843358 2.145172
2 2.506063 4.987321 4.770461
1 2.109019 4.428920 5.615147
2 3.667537 6.619872 5.257539
2 3.883065 6.778051 6.375287
2 4.078368 6.954065 8.915402
2 4.411677 5.536075 9.008465
1 3.506069 6.856514 11.602817
2 3.494695 5.876190 -0.263104
2 3.926715 6.330507 1.359830
1 4.018180 6.158492 2.554200
2 3.977159 6.602873 3.494510
2 3.749717 5.640408 5.779877
2 4.566747 7.310577 5.572352
2 3.642384 6.835302 7.555000
2 3.465921 7.835911 6.799793
2 4.772930 7.384866 9.818363
2 3.923721 8.083202 10.230135
2 2.665660 8.381693 1.136550
2 4.374096 7.637323 1.516218
2 4.160849 7.262446 2.692816
1 3.412266 7.841612 3.351998
2 4.342421 6.942782 4.488193
1 3.835426 8.216464 5.836040
2 3.417659 9.255273 6.238008
2 4.215989 8.802578 8.189824
1 3.681541 8.001089 9.187675
2 4.224778 9.170361 10.570469
1 3.870200 8.130015 0.137192
2 3.802460 8.612613 1.360097
2 4.218726 8.334979 2.353966
1 4.445060 9.289149 4.268461
2 4.925856 8.055398 4.935189
2 4.670841 9.845459 5.761818
2 3.661139 9.604104 7.264729
2 4.227685 9.792487 8.679248
2 4.300113 8.888813 9.515103
1 4.616828 10.166903 9.855458
2 3.715547 9.750174 0.475524
1 4.405713 9.694613 1.393475
2 4.204134 9.922570 2.442343
2 4.288104 10.468987 4.050879
2 3.864347 9.205338 5.138040
1 3.888092 10.146641 6.295140
2 3.668193 10.482674 7.901647
2 2.891678 10.115512 8.732135
2 3.616383 10.727176 9.476290
2 4.201959 11.412103 10.178390
2 4.357607 10.443236 -0.188775
1 2.575799 11.115986 1.720135
2 3.960863 10.891398 1.967933
1 3.774362 11.073657 3.307105
2 3.197358 10.304760 4.213044
1 5.157901 0.437594 6.512241
2 5.043877 0.443070 8.348563
2 3.899429 0.412866 8.413070
1 5.180042 0.722947 9.741491
2 3.667012 -0.042953 11.069827
2 3.836324 -0.445690 0.896524
2 3.441497 0.525747 1.657819
2 3.983421 0.611207 2.724523
2 3.932477 0.367335 4.257615
2 4.572488 0.670805 5.149550
1 3.866595 0.994750 6.393315
2 4.245129 2.166023 6.649321
2 3.148316 1.569290 7.666701
2 3.903948 2.467860 9.143733
2 3.474423 1.493202 10.030411
2 4.899688 1.453677 0.994995
2 3.551504 1.591696 1.091054
1 4.211619 1.488063 3.320079
2 2.884648 1.520410 3.344464
1 3.472194 1.561561 4.651583
2 4.003983 3.115981 5.768217
1 3.668618 2.767744 7.534718
2 4.244328 3.575372 7.816907
1 4.069537 2.411338 10.226468
2 3.691646 2.428962 11.286199
1 3.911066 2.598941 1.019284
2 3.702859 2.745004 2.259541
2 3.704614 2.666694 3.481103
2 4.856706 2.528688 3.545676
1 3.297866 3.449034 4.106781
2 3.834715 3.926493 6.889876
2 3.263345 4.683937 7.840723
2 4.111319 4.466237 8.838280
2 4.251568 3.400940 9.510835
1 4.476351 3.690727 10.849407
2 3.951269 3.982857 0.867071
2 4.421981 3.519088 2.890555
2 2.851472 4.565089 3.572823
2 3.954516 4.256973 3.724184
1 4.067669 3.881335 4.838657
2 3.932743 5.053178 6.761773
2 3.193993 5.783965 6.703347
1 3.414835 5.652752 8.461512
2 3.464442 4.343872 10.503614
2 3.439247 4.822395 11.442837
1 3.033931 6.136879 0.931744
2 4.295179 5.420764 1.972538
2 3.548695 4.866762 2.382999
1 3.715076 6.019112 4.286693
2 3.764436 4.926132 4.912951
2 4.998647 6.588853 6.259552
2 5.510096 6.633263 7.265558
2 5.037286 6.273689 8.581129
2 4.369180 5.829781 10.366509
2 4.265093 7.054907 10.672782
2 5.811152 5.360966 1.050028
2 5.271533 5.612272 2.792755
2 4.940755 6.040776 3.899589
2 4.683352 5.760688 5.200292
1 5.741748 5.830187 5.939115
2 4.657522 7.397336 6.867383
2 4.619719 7.208214 7.932823
1 4.699932 7.906557 8.894442
2 5.748000 7.430800 8.569451
1 4.816008 8.127888 10.689870
1 4.877073 6.234903 0.805478
2 5.031071 6.406869 2.034597
2 6.146965 7.682317 3.781006
1 5.405818 7.127418 4.210314
1 5.501108 6.572328 5.142816
2 5.277529 9.172849 5.053742
1 5.082563 8.243490 7.425242
1 4.959464 9.534537 7.945877
2 5.388748 8.654475 9.998196
2 5.520063 9.838608 10.561377
1 5.060793 7.327581 0.631508
2 5.073570 8.887504 1.375571
2 5.126681 8.734374 2.797494
2 4.706952 7.780023 3.562480
2 5.987350 7.826375 4.890456
2 5.798380 9.938769 5.784801
1 5.385831 9.858538 6.799445
1 6.405915 9.742833 8.376343
2 5.160643 9.455994 9.192433
2 5.433057 11.033883 10.591174
2 4.951567 9.488845 0.328257
2 5.678641 9.874560 1.312188
2 5.635904 9.450857 3.686086
2 6.484639 9.046267 5.032479
2 4.085652 10.419248 5.158327
1 4.768199 10.614129 6.635365
2 6.580644 10.998713 7.683016
2 5.554385 10.559891 8.498257
1 4.760685 11.100189 9.299065
1 5.656679 10.525286 9.638639
1 4.971021 11.917218 -0.321913
2 5.083667 10.849682 1.245009
2 4.889334 11.245645 2.618499
2 5.322277 11.332084 4.656471
1 4.027583 11.224825 6.040810
2 5.556672 1.947848 6.386451
2 5.443406 -0.269168 7.446628
1 6.080718 0.332433 8.455076
1 5.091790 2.043881 9.063697
2 4.099082 1.164876 10.971602
2 5.770957 0.643936 0.486314
1 4.680649 0.442003 1.675771
2 5.890404 0.807354 1.873062
2 4.930760 0.526545 3.618961
2 5.649583 1.237315 3.926802
1 3.461509 1.926974 5.678886
2 4.671925 1.627138 5.700873
2 5.169057 1.427508 7.446327
2 4.762195 1.666340 10.040477
2 5.156781 1.642953 11.108829
1 5.536879 2.586217 0.629347
2 4.675368 1.379750 2.244938
2 5.737596 2.255725 2.879028
1 4.419103 1.326566 4.293191
2 5.129772 2.020700 4.755674
2 5.171951 2.941625 5.394905
2 4.790633 3.146691 6.682013
2 4.614112 2.386317 7.657432
1 4.768914 2.999517 8.742328
2 5.224203 2.821532 10.619649
2 4.585956 2.958549 0.368209
2 4.959805 3.397301 1.605698
1 4.744285 2.531997 2.371417
2 6.109493 3.966473 3.786707
2 4.300195 2.717843 4.711063
2 6.047312 4.178549 6.831515
2 4.838852 4.277071 7.032234
2 5.211293 4.203207 9.279183
1 5.697403 4.904805 9.874401
2 5.763917 4.622168 11.438465
1 4.821031 4.318393 0.461900
1 4.025512 3.993455 1.997975
1 4.912270 4.511548 3.205516
2 5.021069 3.619275 3.955768
2 4.302462 4.240036 5.853295
1 4.891724 5.079811 6.212986
2 4.284039 6.077310 7.043792
2 5.688434 5.836768 7.929417
2 4.206515 5.111851 7.835441
2 4.873615 5.352809 11.369681
1 4.861280 4.761450 -0.741712
2 4.238623 5.112348 0.974117
2 5.218480 4.727998 2.113923
1 4.389202 5.309108 3.165189
2 4.933902 4.943716 4.559964
