1000
Lattice="11.856311014966872 0.0 0.0 0.0 11.856311014966872 0.0 0.0 0.0 11.856311014966872" Properties=:species:S:1:pos:R:3 Time=1000
1 6.889099 5.153577 8.540886
2 6.492531 6.469250 7.944827
2 6.215276 6.946394 8.929418
2 5.803007 6.166707 10.559440
2 6.185023 5.160480 10.949669
2 5.540740 8.078369 0.648128
1 4.866850 5.716988 0.628066
1 6.385847 6.281936 2.268693
1 7.748621 5.740929 4.925697
1 5.654701 6.896656 5.707238
1 7.790837 8.318947 6.384287
1 6.129754 7.783659 7.220010
1 5.426233 7.725582 8.139320
1 6.647504 8.707075 10.255048
1 6.433575 7.328652 11.722724
2 7.565401 7.361496 -0.366718
1 5.123772 8.797011 2.428182
1 5.635806 8.339957 4.436504
1 6.541247 6.531215 4.996367
1 6.245828 7.845180 6.031876
2 5.783601 9.713793 6.285847
1 7.313764 7.630428 7.239108
2 6.416545 8.608504 7.811339
2 6.053532 9.707253 9.910215
1 5.933814 7.578977 10.885390
1 6.121375 9.746616 1.263739
1 6.284074 8.426341 1.721509
1 7.285280 8.948457 3.045823
1 5.843686 8.818392 3.579364
1 7.524789 9.233484 5.179518
2 6.357631 10.011364 5.192610
2 6.658982 8.680154 6.642411
2 5.764275 9.810330 8.386722
1 6.486302 9.317232 8.912910
2 8.157679 8.335605 11.173703
1 5.754821 10.975117 0.793204
1 6.915504 9.673664 1.872123
1 6.741374 11.155092 3.587221
2 5.959041 10.256064 3.764754
1 6.715146 9.499086 3.860984
1 7.719970 10.928583 6.939620
2 6.503160 10.666376 8.118563
1 6.946708 11.807776 7.770918
2 5.970277 13.460470 10.231286
1 6.403602 10.193907 12.178096
1 6.501138 11.786350 0.707975
1 7.166442 10.765698 0.879118
1 5.447979 11.117973 3.598888
2 6.065843 12.119235 4.552432
1 6.243136 10.692030 6.042096
1 6.337973 1.772499 6.646853
2 6.422467 1.314853 7.963839
1 6.716017 1.341486 9.051159
1 5.749928 1.043598 9.260718
1 6.985454 0.336919 11.715025
1 7.503969 0.035770 1.097831
1 6.332383 0.491270 3.472107
1 7.571888 -1.060491 3.095060
2 6.081793 0.481049 6.024632
1 5.478624 1.029233 4.876174
2 6.995264 3.501475 6.111959
1 4.952977 1.276396 8.565357
1 5.693323 2.414728 9.293048
1 6.493697 2.592804 9.912277
1 5.870928 0.680055 11.302834
1 6.930609 1.680548 -0.051631
1 6.811729 1.533205 1.991742
1 5.862009 1.942146 2.723854
1 7.302723 0.528373 4.103541
2 5.968255 2.245407 4.706593
1 5.563302 2.417422 7.060180
1 5.335224 4.399756 8.576692
1 6.052118 3.442525 9.435492
2 5.147951 3.327799 10.949317
1 6.614365 2.420732 10.985814
2 6.702826 4.375896 0.864168
1 7.147005 3.795196 2.315264
1 6.448815 2.833658 3.251898
1 5.785041 1.417076 3.991807
1 6.776620 2.425180 5.661656
1 9.074838 4.205919 6.327873
1 5.284968 3.495838 7.726635
1 5.041404 5.252200 9.642180
1 6.928865 4.190193 9.337887
1 7.159495 5.579597 10.080039
1 6.386015 4.252628 -0.219258
1 5.731429 3.666738 2.284501
1 6.234484 3.938462 3.078017
1 7.285884 4.298053 3.302380
2 6.616289 4.310546 4.318933
1 5.394729 5.274491 5.781169
1 7.322670 5.001713 6.816291
1 7.489839 6.035723 8.686216
2 7.212160 6.553704 9.557792
1 5.479281 4.347304 10.304433
1 6.827672 5.237471 -0.061147
1 7.011049 5.214111 2.783403
1 6.740403 5.514720 4.466574
1 6.175616 4.979544 3.620846
2 6.300558 5.666164 5.645749
1 7.149380 6.431928 7.104978
1 7.640050 7.187815 8.071954
2 8.280465 6.231548 9.332543
1 7.114150 6.667866 10.853956
1 7.866877 6.003381 11.609802
1 7.512561 8.653049 0.184438
1 7.026675 6.896970 1.664513
2 7.523904 6.116341 2.631449
1 10.156272 5.708389 4.718164
2 6.606374 7.628363 4.990155
2 8.509033 6.564498 6.980445
1 8.809352 8.049751 8.425995
2 7.287150 7.632503 10.229358
1 8.447153 6.917412 10.285887
1 6.512781 8.420435 11.310236
2 8.188790 7.025539 0.618470
1 6.471538 7.579448 2.277626
1 7.453810 8.027122 1.944505
1 9.029312 7.260446 4.875293
1 6.137441 8.672742 5.233661
1 8.969878 8.562414 6.421327
2 7.326025 10.065002 8.499788
2 7.606033 8.680394 7.524838
1 7.711369 9.141018 10.245575
1 8.512426 8.898204 12.058342
1 8.930548 8.020513 0.767226
1 7.983364 8.714165 1.269981
1 7.263613 8.494111 4.546176
2 7.407978 7.920991 3.226157
1 8.732986 9.741042 6.218382
1 6.896309 9.402676 5.932718
1 7.720300 9.431916 6.822857
2 7.693218 8.293171 9.377693
1 7.849358 9.983139 9.658026
2 6.590642 9.570010 11.319602
1 7.313186 9.444614 0.953669
1 7.828796 10.011338 1.524777
1 7.362355 10.260252 4.883743
1 8.667686 8.976477 5.230960
1 8.643885 11.678846 5.889932
1 8.975765 10.771043 6.180044
1 7.236495 11.145272 8.684246
1 7.258168 12.620175 8.349104
1 7.510747 11.018271 9.638698
2 7.465821 11.675911 10.927960
1 8.142017 12.140388 -0.108079
2 8.897236 10.383276 2.311202
1 8.754140 11.519324 3.421177
1 6.413224 11.303347 5.156069
1 7.889822 11.491525 4.581338
1 7.258983 -0.392559 5.991243
1 7.776566 0.029686 7.107271
1 8.170717 1.638583 7.717641
1 8.680715 0.614214 9.742506
1 7.012179 1.041869 10.646589
1 8.090421 1.409458 0.731621
1 8.485406 -0.182076 1.957146
1 8.490126 1.358349 2.689777
1 7.466411 1.117035 3.217963
1 7.077853 0.277500 5.262411
1 7.268378 1.555196 6.172411
2 7.087482 1.800246 7.312667
1 6.577753 2.817541 7.269291
1 8.549511 1.795108 10.236512
1 7.846009 2.313120 11.435483
1 9.357067 1.907129 0.559099
2 8.240135 1.926735 1.630190
1 6.742465 1.820856 3.836379
1 7.758634 2.124130 3.873941
2 6.628120 1.298101 5.343995
1 7.122914 3.432785 4.821784
1 7.738453 2.691214 6.933865
1 6.719550 2.436002 8.290689
1 7.154250 1.716577 9.867019
2 6.490264 2.719556 11.964711
1 7.436471 2.995007 0.975169
1 6.510482 3.484141 1.541031
1 7.577810 2.739722 3.033714
1 7.569524 3.557681 3.945039
1 5.905030 4.743758 4.967866
1 8.106775 3.572222 5.940756
1 8.420938 3.770732 8.773048
2 8.011725 4.834785 8.413723
1 8.475378 3.716519 10.036667
1 7.350081 3.129741 9.462453
1 9.191854 5.395904 0.052253
1 7.772221 4.606642 2.271232
1 6.483298 4.694951 1.930896
2 7.746533 4.415731 4.576379
1 8.698835 4.319992 5.299442
2 7.510072 4.461415 5.860818
2 8.337912 6.205362 8.029686
1 6.934340 7.922105 8.441873
1 7.751565 4.715364 9.424008
1 8.464880 5.609005 12.892363
2 6.843833 5.443006 1.132618
2 7.097477 6.468083 0.419986
2 8.081005 5.580155 3.808858
1 7.909218 6.257334 5.998265
1 7.580659 6.834172 5.012772
2 8.980224 5.905293 6.051366
1 9.238360 7.114630 8.247404
1 9.487319 7.640732 9.282819
2 8.934828 6.181487 11.064468
1 8.202114 5.906457 10.450853
1 9.795749 7.655673 1.186385
1 9.787038 5.893919 2.852091
1 9.611925 6.068662 1.063316
2 9.373629 7.417432 3.853068
2 9.198039 7.175933 6.063367
1 8.115425 7.301530 5.987430
1 10.032175 8.969238 9.014756
2 8.223129 7.340595 9.323102
1 9.133678 6.314278 9.853967
1 8.601806 7.120441 11.362062
1 9.247581 8.432873 -0.521609
1 8.976227 9.022789 3.195864
1 8.564338 7.971961 2.672097
1 9.368084 8.166398 5.478187
1 8.082834 7.587176 4.492903
1 10.968365 10.249460 8.443874
2 8.387969 9.285716 8.509386
1 8.762248 8.533474 9.357680
1 9.128006 7.736084 10.276292
1 10.194803 8.289707 10.800253
2 10.280316 10.368901 1.915671
1 9.481961 8.271826 1.979833
1 7.900735 9.299784 3.941087
1 8.369421 8.239162 3.654977
2 9.434673 9.643504 4.485619
2 9.564709 11.183385 7.106955
1 9.321686 10.044724 8.169492
1 9.926583 8.931030 7.827308
1 8.716002 10.480485 10.046614
1 7.417102 10.072922 10.750055
2 8.644115 10.150169 0.627406
1 8.135761 9.681367 2.764280
1 8.741428 9.335428 1.796280
2 8.165487 10.494660 3.852573
1 9.862109 11.559442 5.325333
1 8.981983 11.844902 7.638095
1 8.192049 12.442702 7.856053
2 8.643132 10.830739 8.589884
1 8.721023 11.635311 10.560868
1 9.390961 12.502178 10.678061
1 7.298840 11.243767 0.087827
1 7.666971 11.024853 1.905907
1 9.735885 11.383446 2.888234
1 8.636933 12.686123 3.814476
1 9.610561 11.948566 6.279549
1 8.114091 0.854923 6.341035
1 9.105728 1.168045 8.124679
1 9.287445 1.474418 9.367509
1 8.885616 -0.313424 9.509920
1 8.429703 -0.450184 12.616963
2 8.500547 0.697768 1.431078
1 7.380873 0.520945 2.235383
1 9.652926 -0.638329 4.239512
1 9.377148 -1.207008 5.021915
1 8.132551 0.516666 5.273231
1 8.205053 1.783445 6.698859
1 9.308024 1.915933 6.459838
1 7.957690 2.232095 8.846525
1 9.706337 0.476643 9.707053
2 8.096545 0.874063 10.891909
1 10.703213 1.387783 0.466514
2 9.406947 1.693053 3.552673
2 9.464695 0.553707 3.320420
2 8.777079 2.083341 4.427880
1 7.801566 1.462479 4.795709
2 9.711042 3.018274 6.778920
1 9.089193 2.613447 7.631634
1 9.436769 4.275783 8.495026
2 9.914386 4.378083 9.476632
2 8.709415 2.905069 11.786359
1 9.040277 4.716215 1.371093
1 8.488418 3.416990 1.340125
1 9.034284 2.505138 2.579686
2 8.416731 2.970430 3.617287
1 7.761532 2.604955 5.661561
1 9.155986 5.095848 4.501491
1 9.931594 4.839398 6.883847
1 9.200497 3.630377 7.742279
1 10.732382 3.709317 8.892626
1 8.309218 4.517304 11.016602
1 9.481909 7.033260 0.227014
1 7.682693 5.400078 1.701607
2 8.193606 3.482331 2.493221
1 8.545341 4.133207 4.062369
1 8.271996 3.088475 4.825839
1 8.475685 5.152842 5.731937
1 8.280386 5.496434 6.951880
1 9.241189 5.968682 8.791132
2 8.687901 5.108659 9.280761
1 7.601943 3.646695 10.547027
1 8.106855 5.039503 0.110605
2 9.736189 5.050232 2.132052
1 8.823433 5.669160 1.992261
1 9.445605 5.024928 3.434434
1 9.123553 5.939266 4.990710
2 11.231795 6.826085 6.309439
1 10.312658 7.254815 8.290295
1 9.353059 5.234691 10.360652
1 10.366766 7.368717 10.279966
1 9.712815 6.842052 10.724823
2 11.120137 4.617707 1.481902
1 8.509002 6.761491 1.940604
2 8.245242 6.796885 3.446059
1 9.242491 6.299625 3.818527
2 10.053282 6.637149 5.421782
2 10.214710 8.675556 6.733253
1 9.880688 5.458615 5.753193
1 10.529714 7.684246 9.188864
2 10.170013 6.691620 9.253711
1 10.086395 8.576251 12.228912
1 11.114764 9.112417 1.389170
1 10.740051 8.029124 1.788129
1 9.431406 7.169987 2.429228
1 10.418321 7.544359 4.809229
2 11.864698 7.216682 4.811842
1 10.896082 9.445189 6.359380
2 9.255902 7.690588 7.080692
2 11.269564 8.438712 8.267541
2 10.225146 9.344011 10.161633
1 9.309887 9.774137 9.643703
2 11.205328 10.108213 0.588541
2 11.017825 8.746952 2.387575
1 10.450511 9.356277 3.747541
1 9.611610 7.956845 2.972081
1 9.660596 9.597890 6.836107
1 11.607401 11.147129 5.767533
2 10.512638 10.291131 7.394060
2 11.265334 10.130695 10.662478
1 9.019574 9.038513 10.308184
1 8.493502 9.937526 11.116724
1 9.606521 9.125682 1.258739
1 9.473818 10.075411 1.238101
1 9.895781 9.249901 2.650239
2 11.889012 10.756923 3.679373
1 10.592099 10.578842 4.915974
1 10.019437 9.962205 5.845271
1 9.815248 12.370228 7.572368
1 10.442033 11.175446 8.732279
2 9.653529 10.708493 9.368176
1 9.586381 11.311723 11.425391
2 9.506110 10.009798 0.002651
1 9.582789 11.036158 0.647772
2 10.699327 12.165381 3.059942
1 10.358252 10.654573 3.740625
1 11.473803 11.352906 4.796565
2 8.819821 1.638230 5.456261
1 9.006562 0.918032 6.966454
2 9.500031 0.370129 8.676981
1 10.354451 1.243509 8.898293
1 11.128476 0.009965 12.156965
2 10.254580 -0.385335 1.886314
2 9.169823 0.592970 0.611124
1 9.852873 0.583246 2.033702
1 10.407871 1.709497 4.350672
1 9.424887 0.630587 5.118432
1 10.776424 2.029086 6.513113
1 10.187833 1.081574 6.826113
1 11.144164 2.407965 9.019448
1 8.708246 2.801038 10.464797
2 9.261833 1.719647 11.017962
1 11.873066 1.899777 0.165849
1 9.475134 3.091490 0.676946
2 11.188698 1.090034 2.419109
1 10.203118 2.593318 3.339142
1 10.269515 0.924442 5.914239
1 9.771948 2.241176 5.636178
2 9.617670 2.346671 8.709023
2 8.797806 2.944058 9.415805
1 11.052462 2.762195 10.031295
2 9.782324 2.609147 10.360705
2 10.867174 2.838297 0.693542
1 9.910394 1.870612 2.611575
2 10.185745 4.322625 4.229074
1 9.502263 2.852265 4.214531
1 8.977464 2.733085 5.379418
1 11.106223 5.267976 6.443842
2 10.466784 4.236235 7.839313
1 10.216779 3.103074 9.445319
1 10.778217 3.818248 9.962417
2 9.306326 3.802655 10.622062
1 10.519235 4.171820 -1.019549
1 9.135730 2.466229 1.545433
2 9.359656 3.887038 3.096304
1 8.304193 4.681603 3.256300
1 9.546474 3.490423 5.057476
1 9.273801 5.958841 7.357256
1 10.481512 5.536831 7.602840
1 9.842922 5.354392 8.376745
1 10.187516 6.172950 11.604570
1 10.102916 7.703456 11.635322
1 9.382417 3.597707 2.010502
1 11.873243 4.342364 3.568743
1 10.490700 5.178383 3.539560
1 11.347803 3.988288 4.320967
1 10.475726 4.309220 5.291335
1 10.478671 6.156175 6.522526
1 11.401013 7.129469 10.075320
1 11.298330 6.089083 9.828939
1 10.640284 5.375927 10.400833
1 10.134472 5.390566 12.260542
2 10.599977 6.931519 0.521936
1 10.513200 6.988553 2.235631
1 12.341678 6.298663 3.209814
1 10.472063 6.569020 4.351963
2 11.457453 5.993229 5.436860
1 10.105518 7.525749 6.265725
1 10.533167 8.009423 7.595170
2 11.979423 7.933527 9.323208
1 11.113634 6.788232 11.333970
1 10.993091 8.241564 11.531134
1 11.291645 7.262554 1.459072
2 11.718985 7.335600 2.708237
2 10.562845 6.534543 3.299504
1 11.313342 8.284066 4.388313
1 12.230918 8.179734 5.426218
1 13.229043 8.420505 5.988379
1 11.536522 7.898098 7.169707
1 11.365819 9.795110 9.216045
1 11.172360 8.662010 9.538961
1 11.092178 8.877426 10.638636
1 11.849786 8.147525 1.872958
1 12.621622 11.022995 2.044924
1 10.491268 7.781070 3.614349
1 11.222043 9.816129 4.134417
1 10.991772 9.147046 4.910473
1 12.112405 10.173428 6.490480
1 11.379924 11.079824 7.000488
1 11.801733 9.545014 8.330101
1 9.664153 10.397488 10.827280
1 10.558925 10.694545 11.724259
1 11.273891 9.208454 -0.219648
1 11.926675 9.752633 1.946955
1 11.242824 11.257486 2.853288
1 11.989723 9.977903 4.840937
1 11.739526 9.192892 5.627188
1 12.213273 11.799247 6.244104
1 11.738160 11.685378 8.072642
1 10.975555 12.743067 9.996601
1 9.796486 11.308285 10.352331
1 11.565909 11.291208 11.205127
1 9.859747 12.724255 -0.095079
1 11.333149 12.897476 1.296429
1 12.665615 10.105565 3.825115
1 11.359058 12.047859 3.958385
1 10.991761 12.104282 5.774139
1 10.702240 -0.279739 7.630365
1 10.213416 2.010191 7.476178
1 10.669847 0.320745 8.658497
1 11.587335 0.101780 9.341096
1 12.612785 0.995908 11.642792
2 11.436664 -0.596097 1.571534
1 12.741614 1.503626 0.667393
1 11.224482 2.259320 4.041657
1 10.411382 0.140567 4.506477
1 11.136493 1.119649 3.568889
2 10.613240 3.817458 6.683912
1 11.202139 1.305917 7.275487
1 11.853065 2.054472 7.842475
1 12.219571 2.217480 9.525127
2 10.408502 1.246011 10.843223
2 10.822447 2.234130 -0.337796
1 10.373415 2.357854 1.725588
2 11.917948 3.561684 2.338771
1 10.673264 2.466598 5.096706
2 11.598206 2.185573 5.704788
1 11.346712 3.979445 5.808191
2 11.882058 2.177533 6.755532
1 11.556542 4.391173 8.367665
2 12.494721 2.887085 10.381923
1 11.699760 3.109123 11.842753
1 12.651734 2.732617 0.487527
2 10.235945 3.331120 2.568401
1 10.764143 3.480779 3.556175
2 12.800991 3.862163 4.132124
1 10.440187 3.328454 4.480464
1 11.290877 3.061987 6.220191
1 11.959317 3.030276 8.325267
2 11.712016 3.563031 10.761622
1 10.948714 5.316376 9.023344
1 11.374431 4.752659 10.697064
1 10.870303 3.932434 0.327678
1 10.936250 4.040633 2.443975
1 10.788271 5.292544 2.193195
1 11.040483 5.272205 4.613801
1 11.597351 4.817651 5.260063
1 12.330089 5.296444 4.641357
2 11.767399 5.893470 8.621784
2 10.716197 6.119899 8.447043
2 9.989997 5.651541 9.449619
1 11.448057 5.995223 11.979529
2 12.020242 4.978616 0.844272
2 10.235542 3.721236 1.345085
1 11.125595 5.906419 1.140692
1 11.586209 5.641026 3.667653
1 11.944004 6.303653 4.365162
2 -0.829565 7.100159 7.487435
1 0.349948 7.622098 8.147960
1 1.053644 7.203561 8.933309
1 0.770495 5.923512 9.187272
1 -0.103465 6.458423 10.677836
1 -0.377962 7.910298 0.721436
1 -0.235400 6.267010 2.521965
1 0.304738 6.160051 1.443358
1 0.382388 7.956587 3.964428
1 0.371826 6.977596 5.884490
2 1.326321 8.500525 7.119810
1 2.156375 6.986077 9.876973
2 0.113645 8.287148 10.384875
1 0.542505 6.912197 9.920393
1 0.109667 7.737355 11.235842
1 0.531416 8.624416 0.485988
1 0.503971 7.244893 1.132608
1 1.012679 8.522502 2.997999
2 -0.533185 7.136239 3.751369
2 -0.661772 8.005051 6.132838
1 2.410892 7.733087 6.681379
1 0.159370 8.480647 6.521444
1 0.588864 8.699401 8.158313
1 1.220115 8.795070 10.099110
1 1.243703 9.328173 11.441250
1 1.672264 10.133267 0.130948
2 0.976102 7.653877 2.192789
1 2.751406 10.339073 -0.207607
2 0.281214 9.106117 4.275314
2 1.042525 8.909332 5.027841
1 0.832631 11.765457 7.599099
2 0.712109 9.407845 7.284804
1 0.318630 10.415781 7.782328
2 -0.347870 10.837348 9.405130
1 0.845433 10.543485 11.456208
2 -1.562147 9.341382 -0.361067
1 0.355731 9.603025 3.156711
1 -0.635257 10.213933 3.073440
1 2.184330 10.055111 3.225507
1 1.273099 11.193057 4.132186
1 1.739946 11.792702 5.521639
1 -0.370483 9.836400 7.286850
1 0.711504 12.188251 10.863622
2 -1.306650 10.446857 9.842614
2 1.725686 12.145076 11.458519
1 0.426005 11.642606 0.086116
1 0.609626 12.067120 1.415069
1 0.247202 12.662251 4.105946
1 0.826431 10.892953 5.556277
1 1.818450 9.980275 4.533820
1 2.153730 1.880825 6.978156
2 -0.337692 0.897284 8.261538
1 0.902873 0.925437 7.987816
1 2.879628 1.197773 9.708027
2 1.845748 0.881189 12.790146
1 -0.035051 0.149347 2.290362
1 -0.128654 1.907106 1.429779
1 0.211814 0.932260 2.966088
1 1.205973 1.299828 4.230107
1 -0.527658 0.530566 4.888526
1 0.011320 1.244147 6.155468
1 0.889457 1.938853 6.106737
2 0.213100 0.711674 7.138202
1 0.541733 1.068986 9.169490
1 0.882410 2.213310 11.455010
2 1.630037 2.028523 1.287428
2 1.661502 0.056340 2.104277
1 1.307582 1.442562 2.949375
2 0.349982 2.605304 3.685201
2 0.316289 1.938761 4.781663
2 0.462106 3.077289 5.735245
1 -1.743909 2.940361 7.886295
1 0.147721 3.301322 9.347992
1 0.759560 1.836676 8.442102
1 0.789877 3.452577 11.422620
2 0.896269 4.111444 0.444398
1 0.137999 3.269590 1.069626
1 0.858803 1.236083 1.699118
1 0.604244 4.380222 1.801215
2 0.358389 3.856822 5.027601
1 0.265212 4.545828 7.132275
2 1.396862 4.545602 7.439595
1 0.691026 4.075357 8.325359
2 1.049681 4.426867 11.054692
1 -0.260586 4.635967 11.832639
1 2.287549 5.690419 0.674383
1 1.273934 2.692989 2.083995
2 -0.455187 2.417398 2.751342
1 1.191482 2.981027 4.467085
2 1.044809 4.766746 6.338964
1 0.292136 5.723799 6.243521
1 -0.394469 5.113356 7.613851
1 -0.516596 7.236560 8.558888
1 0.218666 4.792108 9.364891
1 0.178405 5.441025 10.158020
1 0.755158 5.744237 -0.529258
2 1.158413 5.332250 2.516064
1 -0.136410 5.381145 1.895176
1 1.363328 5.826767 3.727773
1 1.381075 4.942892 5.359996
1 0.612078 7.575315 7.142407
1 2.053990 6.386127 7.016024
2 2.362008 6.584002 8.156629
1 1.973494 6.024523 9.310804
1 2.608908 7.510461 10.698855
1 1.204303 7.682174 0.117615
2 1.472605 6.055519 1.462441
2 2.062970 7.489839 3.165438
1 1.569105 7.286788 6.017517
1 0.837751 6.209071 5.201832
1 2.514850 7.015432 5.713198
1 1.626626 7.678984 7.685361
1 3.536696 8.187466 9.090740
1 3.596881 8.130490 10.283692
2 0.410685 8.978781 9.336479
2 2.101262 7.003801 2.035312
2 3.273177 7.906548 2.528133
1 2.231925 6.986700 4.029351
2 1.122326 7.080844 3.913878
1 1.038756 7.313550 4.964674
1 2.955052 9.232485 7.346825
1 2.702766 10.759143 6.741639
1 1.746004 9.175100 8.980540
1 1.277177 7.906395 10.603941
1 1.874091 8.475370 11.534167
1 1.465178 8.271016 1.104607
1 2.007937 9.101729 1.345052
1 1.324626 8.519708 4.064969
1 3.134586 10.193696 5.471041
1 1.965867 9.350336 5.453578
2 1.788096 9.663281 6.695633
1 2.972521 10.265260 7.766513
2 1.065686 9.897020 8.447910
2 2.146211 9.537649 10.834598
1 1.827944 11.092703 11.027685
1 0.655563 10.697939 0.774149
1 2.545270 11.880807 0.202811
1 1.161462 9.160530 1.959696
1 2.225708 8.275322 2.074077
1 0.884413 9.526207 5.967334
2 1.677231 12.695221 9.083740
1 1.433254 10.897072 6.527362
1 1.874408 12.183930 7.997768
1 0.895705 10.868081 9.354435
2 2.432714 10.421706 10.298794
1 1.262513 11.743284 0.502977
1 0.798233 11.700138 3.028490
1 1.491419 9.383167 3.255306
1 2.240617 13.340742 4.015241
2 2.660534 10.978078 3.793716
1 1.753807 1.169588 5.609719
1 2.798617 1.501230 8.137693
1 0.725583 0.073575 8.608499
1 1.826682 0.226393 9.975105
1 0.256559 0.924382 10.059720
1 1.659676 1.477639 -0.454300
1 1.105946 -1.702601 1.678183
2 1.944870 0.175528 3.405167
1 3.014197 0.840180 3.834715
1 1.390728 0.453903 6.496200
2 0.605092 0.634806 5.357459
1 2.025044 2.145575 8.225907
1 2.392258 2.035737 9.285655
1 1.503069 1.652949 10.282166
1 1.673047 3.040052 11.771581
1 1.713090 3.400285 0.880231
1 2.430173 0.060436 1.382658
2 2.258820 2.523096 2.544709
1 1.724639 0.213611 4.534728
1 1.988728 2.814798 6.122885
2 1.074857 2.759371 6.741614
1 1.072873 2.637210 7.937575
2 3.321724 3.705775 9.586563
1 1.659862 2.970649 10.008807
1 2.316423 2.256597 11.018600
1 2.762412 3.045046 -0.005389
1 2.221604 1.459579 2.128619
1 2.535112 3.488048 3.840883
1 2.932138 1.789003 4.821560
1 1.799482 2.298945 4.974681
1 1.214682 3.758004 5.821042
2 2.271606 3.504933 6.914981
1 1.505528 2.797725 9.024029
1 1.027824 3.995063 10.064392
2 1.778555 5.344050 11.126664
1 2.083365 4.201398 -0.240642
2 1.771149 4.830228 1.156221
1 1.630597 4.292239 3.179540
1 2.031894 2.588941 4.005871
1 3.237575 3.793785 5.091742
1 1.183237 6.314009 6.301259
2 0.384816 6.257852 7.279117
1 0.794439 5.109769 8.051912
1 1.306304 5.242496 9.891055
1 1.305340 6.919587 11.142755
1 2.362739 5.076463 1.982111
1 2.379779 5.979196 3.043986
1 2.410293 5.457927 4.222719
2 1.426707 6.565657 2.902669
2 2.368721 5.217281 7.123415
1 2.898138 6.853079 6.927035
1 1.694384 5.641842 7.832072
1 2.487048 5.314530 8.497784
1 2.655468 6.114661 10.758167
2 3.530516 6.829398 9.912479
1 1.168127 6.495808 0.395499
1 2.863457 6.917126 0.520965
1 3.749499 6.124949 3.147000
1 2.860000 5.974769 5.332871
2 3.057200 7.071501 4.805121
1 3.398968 7.801723 6.634703
1 1.295390 6.568919 7.800751
2 2.058966 7.975092 8.620251
1 3.733991 7.205482 7.904402
1 2.348936 7.574083 11.759632
1 2.885501 9.246629 0.260742
1 3.130606 7.471337 1.565602
2 3.995396 7.135302 2.576594
1 2.600667 9.424173 2.574359
1 1.878421 8.102387 5.131162
1 3.447413 9.519663 6.137581
1 2.917081 7.875586 7.710045
1 3.832813 8.983087 8.344105
1 3.558630 10.347062 8.544646
1 3.140079 8.471050 11.237732
1 2.461528 10.932611 0.599112
1 4.100101 9.105040 1.256655
1 2.213000 8.711758 3.480756
1 3.147663 9.506291 3.971789
1 2.676064 8.549243 5.872354
1 4.209426 9.220970 5.250205
1 2.847820 8.727471 8.305707
2 2.101475 9.434506 7.999235
1 4.247595 10.510888 7.805172
1 2.424664 8.550110 10.375283
1 3.479884 10.508120 1.063887
1 2.536690 10.173203 1.656483
2 4.164947 10.229493 2.083087
1 3.803629 8.245042 3.449591
1 3.415750 11.097304 5.752995
1 2.255203 11.793129 6.556214
1 2.196702 11.079788 8.264721
1 1.033112 11.077263 8.371880
1 2.797799 11.694460 10.327608
1 3.194913 9.627908 10.926316
1 3.244263 10.907679 -0.823290
2 2.751554 11.452308 2.186599
1 3.184528 10.454686 2.607334
1 1.586211 10.890016 2.618970
1 2.572941 11.539269 5.144836
1 3.233059 0.637710 7.380634
1 2.830990 -0.322115 7.527621
2 3.167698 0.373429 9.148276
2 3.481672 -0.726488 9.637997
1 3.824675 0.601321 10.234909
1 2.923154 0.466854 -0.653534
1 3.553203 0.294092 2.093903
1 3.370950 -0.108497 3.243424
1 3.229402 -0.040480 4.248892
1 2.644445 0.694751 5.009926
1 4.328085 3.486474 5.662490
1 2.908255 2.657111 6.951828
1 2.988175 2.518420 8.227100
1 3.513342 2.228692 9.394298
1 2.069687 4.388206 10.273755
2 2.285510 2.059734 0.416023
1 3.037617 1.046207 0.962092
1 2.859410 1.957017 3.348274
2 3.316773 2.614736 4.258283
1 3.805152 1.440501 5.684569
2 4.235230 4.768691 6.274265
1 2.120765 3.349095 8.372689
1 4.360237 3.351231 8.594883
1 2.813678 2.828823 9.877741
2 3.603612 2.817944 11.282692
2 3.599065 2.947841 0.490660
2 2.675709 2.794836 1.417516
1 1.858069 3.411210 2.364467
1 3.589943 3.765207 3.146373
1 2.698384 2.703635 5.494306
1 3.170204 4.739273 5.819899
1 2.389688 4.369508 7.985538
2 3.124668 4.641028 9.030652
2 2.293869 3.984723 9.188407
1 3.305627 4.210538 11.707383
1 2.742184 3.605074 -1.018408
1 4.024134 3.613345 1.437880
1 2.598393 3.939953 1.645048
1 1.957378 4.110808 4.489581
2 3.594991 5.049068 3.835861
2 3.571164 5.772435 6.425633
1 3.505874 4.732282 7.174595
1 1.260082 4.555920 9.075634
1 3.444296 5.200700 10.120252
1 3.489839 7.204139 11.575589
1 3.071377 5.261974 0.202792
1 2.797127 4.812483 1.006314
1 3.657388 4.572237 2.075918
1 2.272758 4.376586 6.251557
1 1.879241 5.746063 5.890803
1 3.871400 6.548603 5.287152
1 3.245057 5.897984 7.502279
1 4.918997 6.091001 8.704371
1 4.921470 6.498939 10.828137
1 3.966115 5.966435 11.250706
1 4.257845 6.359979 1.441770
1 4.493866 7.988449 2.500125
1 5.269897 5.844723 1.783825
2 3.293245 6.096301 4.288365
1 4.292356 5.636581 5.521266
1 5.281785 7.791504 5.829647
1 3.916314 6.543176 7.005968
1 4.320896 7.187686 9.066944
2 3.237596 9.273782 9.949549
1 4.589637 7.633925 10.402679
2 3.726232 8.550382 0.358191
1 3.290074 8.658474 1.760554
1 2.820718 8.053944 4.324098
2 3.243716 7.317723 3.554917
1 4.777690 7.765103 7.173509
1 4.202144 7.036112 6.206301
2 4.019830 8.570528 7.138340
1 4.482586 9.491330 7.534762
1 4.077714 10.118403 9.997256
2 3.782369 9.871915 11.764474
2 4.748064 8.149535 -0.306763
1 4.338698 7.650074 1.628460
1 4.111234 9.133031 2.311220
1 4.492691 8.516033 4.039900
1 4.750455 8.135036 5.037503
1 4.171389 10.269096 5.792943
2 3.889365 10.896919 6.609172
1 4.803640 10.281732 8.974139
1 4.657220 9.920490 10.855303
2 4.657379 10.599690 11.606674
1 4.595258 9.214722 -0.026408
2 4.545841 11.046472 1.256801
2 5.056570 9.830747 2.595026
2 4.103209 9.629181 3.382422
1 5.118536 9.843902 5.315752
1 4.604409 10.619480 4.952300
1 4.298248 11.478431 7.516048
1 2.029655 10.876661 9.453154
1 5.446761 10.685643 10.572405
1 4.397429 10.873574 10.645147
1 4.791998 10.110017 0.656819
2 3.709611 11.770677 1.143875
2 4.054964 12.733427 0.514524
1 3.350967 10.815142 4.631609
1 3.881079 9.972886 4.570778
1 4.588960 0.626046 6.746840
1 5.077864 -0.016539 8.329996
1 5.388443 -0.900877 7.910075
1 4.650924 0.020857 9.752665
2 3.257917 1.375910 10.812562
1 3.867035 0.043327 -0.147783
1 4.441453 1.045824 2.220155
1 4.301889 -0.278698 2.690180
1 3.803343 1.418860 4.305781
1 4.393499 0.285299 4.950273
1 3.240615 1.627112 6.741851
2 4.474498 2.176037 6.808560
1 3.984408 0.914816 8.141897
2 4.542338 2.609801 9.391049
1 4.682169 1.062945 10.653920
1 4.099804 1.737676 -0.188970
1 3.491033 1.899076 0.924110
1 3.375408 1.815375 2.314937
1 3.699173 1.295188 3.134911
2 3.691244 2.642604 6.201929
2 3.989863 3.113506 7.254830
1 3.301192 3.600965 8.217996
1 4.000984 4.289393 8.720313
1 5.929028 1.751963 11.437265
1 3.888253 2.972502 10.251046
1 4.259840 2.532090 1.346423
1 3.158953 3.295596 2.366109
1 4.691990 2.379209 2.855768
1 4.329152 2.062163 3.710339
1 4.043378 2.639662 5.147030
1 3.291974 3.883480 6.393221
2 4.316327 4.210076 7.726735
1 5.020541 3.480469 9.724626
1 4.130262 3.753112 10.842734
2 4.706340 2.837833 11.808801
1 3.120326 3.826442 0.758111
1 5.022590 4.406816 2.223643
1 2.761297 4.350823 3.073994
2 4.490326 4.323192 3.311776
1 3.931650 4.111785 4.368092
2 4.575819 5.606245 7.065236
1 3.557255 6.260796 8.328654
1 2.999098 6.071733 9.212528
1 4.985420 6.396975 9.881394
1 3.995864 7.211760 12.593140
2 3.113278 6.162741 1.484469
1 3.142923 5.401569 2.604992
2 3.805496 5.072885 1.033202
1 4.293439 6.036490 4.344785
1 3.802913 5.013542 4.828007
1 5.929002 5.675432 6.782584
1 5.344331 6.488338 6.668044
2 5.585316 5.364681 7.789602
2 4.470544 5.352612 10.607079
1 4.891788 7.152414 11.884509
1 6.040601 6.019233 -0.066091
1 6.880256 5.943211 3.481216
2 4.967186 5.992097 3.247979
2 5.044522 6.234280 5.115649
1 4.407606 7.315627 4.268324
1 5.603952 8.416732 6.633939
1 4.749376 6.400568 7.787916
2 4.843366 8.431043 9.255204
1 4.340355 8.117567 8.171893
1 4.141951 8.959239 10.894431
1 5.233297 6.645882 1.011867
2 5.320020 7.375653 2.109988
1 5.026278 7.410630 3.498705
2 6.482132 7.987221 3.887051
2 5.726971 7.171259 4.420542
2 4.767795 9.420430 6.487549
2 5.334481 8.710304 7.626155
1 5.869142 10.575136 9.101042
1 5.525997 7.902391 10.004137
1 5.550131 9.540938 11.465162
1 6.238316 6.309540 1.033195
1 6.593785 10.829587 1.871636
1 6.454378 9.829911 2.833028
1 5.264304 8.850937 5.587919
1 3.773993 8.335826 5.753656
1 5.085266 10.889079 6.897114
2 6.289435 9.593589 7.286407
2 6.508394 8.267892 9.307410
1 4.277793 8.927870 9.962233
1 5.490421 11.307611 11.371878
1 5.160136 9.249011 1.164574
2 5.132802 12.086030 2.002780
1 4.872355 9.986062 4.240484
1 5.894108 9.438370 4.505989
1 5.315422 10.793794 5.872178
1 5.101719 12.125547 5.945426
2 4.149969 11.620390 8.784603
1 5.684826 11.559644 9.287796
1 6.539274 11.370945 10.361827
1 5.863920 12.223259 10.270337
1 6.589457 10.882685 -0.540012
1 5.989177 11.695380 2.650641
2 5.242924 11.007165 2.091356
1 4.079625 10.838396 3.894779
1 4.079571 11.807939 6.073955
1 6.678985 -0.079052 6.790756
1 5.790240 0.164722 7.562647
1 6.461475 0.163312 8.801904
2 4.308148 1.558093 9.672287
2 5.029996 0.147396 12.357444
1 5.171948 1.248631 -0.069713
1 6.736269 1.003191 0.931032
1 6.151920 0.926581 2.494571
1 4.753866 0.607276 3.950903
1 4.859602 -0.385467 4.427210
1 3.010454 0.520520 6.086171
1 5.336831 1.423978 5.971331
2 4.145338 2.008949 8.499047
2 4.658669 0.068660 10.902686
1 4.929481 2.113355 10.472060
2 5.566801 0.917122 1.171114
1 5.096656 1.857218 1.830930
1 5.461717 3.006371 3.338860
1 4.481772 3.247594 3.779362
1 4.805938 1.965522 4.873551
2 5.150929 3.207729 6.477726
1 4.820531 2.520226 7.823783
2 6.103811 3.401300 8.382937
1 4.415242 4.392682 9.700445
1 6.346573 1.984736 13.105807
1 5.472014 3.534981 0.310871
2 5.054128 2.118340 0.694265
1 4.088747 2.915715 2.318987
1 5.449722 4.007709 3.811030
1 5.304665 2.864366 5.541850
1 6.255860 3.855838 6.794404
1 6.178226 4.528081 7.540457
1 6.456123 5.892049 9.265694
2 6.468044 3.652146 10.533762
1 4.970120 4.257963 11.552218
1 4.349452 4.044667 0.563856
1 5.025334 3.218015 1.567456
1 5.092896 4.602238 1.295936
1 5.570770 3.418193 4.626327
1 4.783332 4.460472 5.350439
2 5.367846 4.622933 6.754210
1 3.765098 5.238250 8.071849
1 7.350965 4.222048 7.666610
1 4.086561 5.620462 9.211451
1 4.052007 4.931855 11.874950
1 3.603091 6.103242 0.490101
2 5.777564 5.010495 0.364001
1 5.813435 5.232752 2.548441
1 4.434003 5.371830 2.350321
2 5.120338 5.264725 4.490552
