1000
Lattice="14.938015821857212 0.0 0.0 0.0 14.938015821857212 0.0 0.0 0.0 14.938015821857212" Properties=:species:S:1:pos:R:3 Time=1000
1 9.465625 7.061886 10.791403
1 6.657818 7.431553 7.028503
2 9.104865 9.793145 11.312604
1 6.241162 7.286400 14.410063
1 7.867701 7.024226 14.171665
2 7.725093 8.893354 0.666144
1 6.580495 8.223630 0.250231
2 7.608279 8.085331 3.876228
1 10.065012 9.141343 5.691426
1 6.555186 8.474093 6.820221
1 8.826521 11.997935 8.525176
2 7.653285 10.423437 8.709716
1 6.581271 8.982194 10.282839
2 8.850165 12.011930 13.093599
2 6.805838 8.987329 14.001449
1 8.838421 9.988745 -0.387250
1 6.763936 9.581429 1.932711
1 6.532993 8.804044 3.349241
2 8.332229 8.952768 5.162470
2 7.259982 9.336407 5.849046
2 6.483100 10.918879 10.239083
2 8.307354 10.306478 9.961060
1 7.880058 9.653510 11.563998
1 8.733662 10.789915 12.824360
2 7.148834 9.450969 12.414274
2 8.605442 11.329133 -0.933398
1 9.072739 10.537560 3.346603
2 9.437780 12.481659 2.986650
2 8.585937 11.662762 4.308702
2 8.552848 12.276097 6.364192
1 9.343271 13.091830 6.809005
2 7.927721 12.891374 8.444353
2 7.833355 10.880262 10.880032
2 8.141462 12.466882 12.258244
1 9.592271 12.254042 14.684612
1 7.213711 14.016994 0.339851
1 6.549174 12.956824 3.258916
1 9.114040 13.145943 5.763896
1 7.449618 11.727242 4.703154
2 7.628621 12.565330 5.565545
1 9.701026 15.805996 9.210369
2 6.664485 15.778959 11.448492
2 8.970936 16.060495 10.914875
1 7.278260 16.566405 13.983526
1 6.765854 13.024781 12.971306
2 7.599472 12.564699 -0.508486
2 8.240135 14.862881 -0.600454
1 10.050414 12.716635 4.034700
1 6.846421 14.342363 6.405022
2 7.656696 15.250781 6.697431
1 8.192117 2.086131 6.930676
2 7.943738 1.207821 11.339291
1 8.209616 -1.857284 9.631570
2 6.536731 1.589993 12.783174
2 9.040205 1.142499 14.888558
1 7.914366 -1.242223 -0.443288
1 9.334742 -0.285291 4.688080
2 9.187593 -0.576463 2.261383
2 9.217699 0.792965 7.494683
2 6.327499 0.437526 7.532184
2 9.084082 2.133597 7.438338
2 7.547584 3.909507 10.392908
2 8.591370 4.237668 10.856763
2 7.449616 3.830716 14.305504
2 5.915033 -0.643175 14.005749
2 8.748240 2.742248 -0.152086
1 8.801846 2.561103 2.287997
1 5.956250 2.778399 2.634100
2 10.613992 1.911666 3.474802
1 7.968969 2.026014 8.344183
1 9.539145 4.892509 8.208012
2 5.914529 5.130357 9.509774
1 7.494232 4.548397 11.474542
2 6.315515 5.261002 14.556608
2 8.587636 4.020103 13.899095
2 10.278083 3.349294 0.608360
2 8.429342 7.246043 0.798464
1 8.085815 3.930178 4.840170
1 7.782454 3.384626 4.121246
2 8.810486 5.174417 7.414029
2 8.445901 3.051455 7.867084
1 6.761216 5.983536 10.065471
1 7.446277 5.365921 10.650006
2 6.727633 5.442103 11.568602
1 8.527294 4.512501 12.641084
1 7.854422 5.852689 -0.992925
2 8.374886 4.813027 2.472338
2 7.164769 4.827290 2.737064
1 7.968365 4.711246 5.977807
2 9.767320 5.052157 5.373814
1 8.739990 4.560758 8.736446
1 9.016528 7.094023 9.224975
1 8.680295 7.137530 11.938069
1 7.601890 6.825456 12.189305
1 8.708868 6.710333 13.003421
1 8.812997 7.313086 -0.755301
2 8.957697 6.336755 2.943130
1 6.458804 6.633409 5.534092
1 6.938020 7.858849 4.884135
1 9.566203 6.671875 7.390430
1 8.415892 8.747734 7.731557
1 9.591927 8.113478 10.233442
1 10.480315 8.286102 11.337780
1 9.790003 9.552472 13.185261
2 9.981281 7.850010 14.669633
1 8.726289 8.559591 -0.035369
2 8.214316 7.858714 1.832253
1 7.967039 5.925068 2.601917
2 10.203638 6.225110 6.243721
2 7.782807 7.431301 8.449604
2 11.371472 9.340960 7.476545
2 10.687137 10.900433 10.234598
2 8.643185 7.774485 12.748291
1 12.088705 8.258654 13.890704
2 10.489882 7.538425 13.357450
1 10.489187 7.052422 1.608398
1 9.089809 8.481499 3.897799
1 9.360689 8.565565 2.527288
2 11.839112 9.904336 6.449678
1 8.193209 10.781077 5.725368
2 10.545443 12.249145 7.335609
1 9.384913 10.396366 10.082022
1 10.306103 10.646044 11.555743
2 9.943119 10.780227 12.897677
1 11.388297 11.217098 13.973424
2 9.640092 10.227322 0.734078
2 10.791097 11.018763 2.029071
2 10.227026 10.640148 5.477500
1 9.623668 10.761995 6.338392
1 9.580326 11.337979 7.260173
1 9.588034 12.800175 7.855875
1 10.430886 11.350071 6.843562
2 10.604335 11.667342 11.013308
1 10.739495 13.630386 12.957537
2 10.019924 12.899327 13.787698
1 9.903726 14.107160 1.466106
2 8.880737 13.031559 1.639044
1 9.855703 13.282673 5.076555
1 9.766382 12.156429 6.327522
1 10.149487 13.773931 7.346182
1 10.717801 13.780199 9.074211
1 9.610744 14.562562 11.518067
2 8.597404 13.912696 10.302680
2 9.153537 13.401214 12.770264
1 8.677687 14.289965 13.540108
2 9.420575 15.056353 0.709976
1 11.288161 14.266376 3.721607
2 10.705274 15.569925 3.281822
2 7.817709 13.836634 6.067435
2 8.985710 14.497622 6.086567
1 10.866219 1.717814 7.172275
1 8.909896 1.530136 9.590915
2 10.006893 0.955976 10.701527
2 9.752490 2.067156 11.392738
2 8.658256 0.777128 13.574917
2 9.918252 1.038321 1.298720
1 10.514333 -0.184155 2.120862
1 10.200841 3.169224 3.389792
1 10.462381 -0.309759 5.557042
2 8.733353 0.638965 6.027241
1 9.082123 2.281023 5.936977
1 6.781210 2.597217 10.341898
2 9.642015 3.342948 11.492738
2 9.798376 0.773453 12.009389
1 8.716252 2.081517 13.136071
2 10.511291 2.834315 -0.493913
1 10.458906 2.479016 2.052583
1 11.344456 2.859468 3.530819
1 10.959608 0.730409 6.556024
2 11.083212 1.961271 6.203038
2 10.726910 3.594396 7.187158
1 9.025133 2.536384 10.020476
1 9.510395 2.266254 8.392135
2 9.628714 3.341943 14.089993
1 9.534337 4.107089 15.190973
1 7.292666 5.143877 -0.238584
1 11.471774 4.361772 1.972858
1 9.294995 3.760881 3.582330
2 12.177381 5.237058 3.496081
2 9.022963 4.812072 6.134581
1 8.821407 3.690087 9.700587
2 9.725071 5.389867 11.389515
2 9.847485 4.392476 12.449822
2 8.652871 4.944146 11.719352
2 8.549722 5.689408 12.925965
1 10.890452 6.555495 -1.324975
1 8.233372 6.499663 4.999251
1 9.583927 4.578218 4.290058
2 10.644577 4.697881 3.826807
1 11.559264 3.579890 6.602843
2 10.733891 4.555208 5.743430
2 10.786426 7.561791 10.529722
2 8.955325 8.581281 11.210672
2 9.629487 7.511795 11.872250
2 10.542336 6.949340 14.696796
1 8.160257 6.380475 1.534479
2 9.064385 5.769300 1.271149
1 9.881057 5.625632 4.372691
2 8.834106 8.083697 5.563532
1 8.853566 8.072018 6.705045
2 10.585006 7.684525 7.105809
2 10.345986 9.305204 9.874784
2 11.525838 8.704052 10.277870
1 10.573397 8.038054 12.418978
2 10.300773 9.694001 12.197918
1 14.450531 11.201552 1.686250
1 12.032809 7.530731 3.494397
1 13.254978 8.335381 0.020255
2 12.134039 8.892053 6.739703
2 12.784103 9.269585 5.681940
1 10.912270 10.390808 7.285537
1 12.748240 9.761813 10.830018
1 9.838254 9.025067 10.903778
1 11.221788 9.354449 11.525001
1 12.233704 8.336324 12.616120
2 11.114768 10.142620 0.826678
1 10.439732 11.532486 3.612330
1 9.849788 10.964858 1.685558
2 11.042476 10.546294 6.153544
1 8.696095 9.806174 7.469241
1 12.420719 12.513743 10.792994
2 10.423313 10.037184 10.749239
1 11.513672 12.106986 11.383081
1 12.071381 10.723982 12.808552
1 12.077508 12.188742 14.705364
1 10.951115 13.567768 1.123759
1 12.278093 10.677797 2.033900
2 10.521121 12.264742 4.781782
2 8.414030 9.925336 3.994713
2 11.664597 11.614967 5.657384
2 11.690419 12.526595 8.076088
2 12.927727 14.491054 9.714201
1 12.350608 12.372900 12.265531
1 11.771591 13.495363 11.505771
1 10.933619 12.487246 12.393406
2 10.913017 12.274769 -0.426724
1 10.663440 12.473661 2.850947
1 9.882221 11.970009 1.967218
2 11.765234 12.855553 4.452627
2 13.713165 13.420951 7.011238
1 11.993707 15.653289 9.567560
1 10.563232 15.001401 10.316884
2 11.295011 15.709483 11.362961
2 11.420509 14.804874 12.289589
1 10.648097 15.510655 13.753048
2 10.551783 14.676486 0.705929
1 10.772995 13.488594 2.252974
1 13.329263 13.537731 3.328590
2 10.302526 15.816349 4.519010
2 13.450400 14.703718 8.172150
1 10.290797 0.968139 8.185228
2 11.144336 2.752381 10.460837
2 12.343225 2.817503 12.266554
1 12.165175 0.401341 13.282388
1 10.039794 -0.895351 14.855492
1 10.752241 0.853252 2.090662
2 10.126053 2.141132 4.855851
2 12.694098 0.655417 4.914451
1 12.175364 -0.045683 5.807516
1 12.271136 0.564168 6.884451
2 10.642551 1.240920 9.720805
2 10.470283 2.519568 7.778436
1 11.067121 1.608633 10.594213
2 11.845162 -0.462201 14.420731
2 9.337264 2.347579 13.993161
2 11.770039 1.523446 -1.955029
1 11.635763 1.157128 3.438206
1 13.391708 2.641375 4.056560
1 10.861397 3.212914 5.431132
1 9.496359 4.038255 7.421385
2 11.936530 3.643805 7.805736
1 10.699416 3.044219 8.687589
2 10.861145 4.748253 12.162566
2 11.609878 5.419661 11.848665
1 11.241076 3.330600 13.223993
1 10.560190 4.762396 0.829356
1 11.630327 4.360095 0.713266
2 12.162433 2.313350 4.246172
2 9.543138 3.070452 5.081627
1 10.085944 2.889219 6.817607
1 10.949439 4.802755 7.578512
2 13.072807 5.496460 9.401586
2 11.631722 4.785796 9.900485
2 12.693948 5.349351 12.517115
1 9.459879 6.602702 14.088063
1 10.312208 5.996274 1.177210
1 9.994462 4.094642 2.996238
2 11.269651 4.288683 4.586815
1 11.820577 5.001636 5.832475
2 10.029644 5.331097 7.536245
1 11.823481 6.356175 8.902937
2 10.655336 8.318799 8.967813
2 11.543073 6.442303 9.955897
1 10.304460 6.749005 11.363948
1 9.984922 6.298532 12.656334
1 9.757815 9.074654 0.811295
1 11.901655 6.600390 4.084284
2 10.506214 6.090451 2.240975
2 13.510883 7.128812 4.683813
2 9.676572 7.157481 6.223768
2 13.550020 7.840772 8.767744
2 12.441193 9.630926 12.022193
2 11.881423 7.507055 11.928214
1 14.500185 11.103353 12.838336
1 11.994389 7.247311 13.535285
2 14.773413 6.656933 1.427348
1 12.278253 9.006359 1.880481
1 11.399919 8.217186 4.135736
2 12.814270 6.019802 3.819937
1 14.578284 7.126507 7.009606
1 12.306527 10.991014 6.637886
1 12.270688 7.586177 8.925837
2 11.285719 9.696726 10.200957
1 13.336750 7.938515 12.119149
2 13.490786 10.662352 11.995168
1 13.966970 10.058320 1.286113
2 13.210421 9.556812 1.949923
1 14.135155 6.256567 3.282741
1 12.403616 9.830518 4.203428
1 14.544779 8.285018 5.855884
1 15.142034 11.671280 10.932145
2 10.446981 9.203142 7.884867
1 13.658247 9.082998 10.677331
1 11.622366 12.817104 13.800210
1 12.812558 12.094642 13.906298
2 13.058945 12.225223 1.413083
1 13.043414 11.452981 2.559795
2 12.507438 10.798872 3.213438
1 10.267483 8.956585 2.664602
2 11.697494 11.978126 6.981604
2 11.950549 12.605017 5.819401
2 14.984541 13.222580 7.345520
2 14.139196 12.453943 12.874692
2 13.079569 12.969389 13.095705
2 8.761237 13.090508 13.755012
2 11.345366 12.386909 1.939908
2 11.868708 11.737177 2.590265
2 11.690770 11.382240 3.872218
1 14.446107 12.595297 6.528769
1 14.005315 12.424452 8.130634
1 13.885073 14.473806 7.174326
2 12.016476 16.828878 9.266382
2 11.781219 14.026234 13.161806
2 12.495881 14.179079 10.936762
1 13.088086 13.701598 14.299753
1 11.540215 13.403048 -0.071277
1 11.663137 14.166405 2.278602
1 12.906992 16.270342 3.896434
1 12.486448 13.532926 5.395123
1 14.498031 14.950512 6.486694
1 12.576731 3.098166 6.827545
2 11.659263 2.594636 7.636608
1 13.217292 0.758931 10.003650
2 12.380103 0.332581 12.191421
1 13.553621 0.703583 12.618735
2 14.354093 0.283411 1.286066
2 12.647708 0.764699 2.988457
2 11.700509 0.517233 2.273821
1 12.173746 2.354700 5.983225
1 10.151545 -0.197970 8.342401
1 13.309300 3.396920 8.173992
2 12.946307 1.457998 8.047201
1 12.088805 1.865314 11.686270
2 11.473566 1.973634 14.517040
1 11.939361 0.994471 14.185605
1 14.834382 0.623642 -0.544954
1 13.803536 0.909796 3.450097
1 14.802235 2.701064 4.301388
2 14.651188 1.476661 5.772466
2 12.836459 1.832062 6.925814
1 15.035309 4.286599 7.867745
1 12.109597 2.076292 10.441905
2 10.288301 1.890734 12.321888
2 12.307466 3.015369 11.066656
2 14.293143 2.332094 15.148353
2 13.112073 4.838783 0.321602
1 12.648827 2.328480 2.265118
1 11.870014 4.167001 2.868865
2 12.424005 3.358357 5.810519
1 12.217740 4.279937 6.880367
1 13.010980 7.055135 7.821509
1 12.400565 5.998208 10.369940
2 13.219937 5.618261 11.170705
2 12.316237 6.252102 11.582419
1 11.098794 6.690544 12.309781
1 12.341962 5.869121 -0.832461
2 12.498026 3.682401 3.747017
1 13.967246 3.967475 4.087886
2 11.289202 6.066104 6.392691
2 11.682279 4.591888 8.533550
1 13.242295 7.071364 9.466158
2 14.204725 8.691254 9.780083
2 13.821873 7.885733 13.371305
1 12.538936 7.404576 14.663402
2 15.313340 8.869940 15.797532
2 11.527185 5.964999 2.811822
2 13.589169 7.107146 3.347101
2 13.613313 5.814577 4.896647
2 13.393782 5.114386 7.347622
2 13.026300 4.732948 6.063084
1 12.395584 8.139694 8.058889
2 13.252797 9.477704 9.756910
1 15.063023 8.145285 11.329911
1 12.778064 7.448484 12.793552
1 14.208687 7.510878 15.328042
2 13.201456 8.439661 1.492968
2 15.289952 9.489485 3.603977
2 15.342983 6.997499 3.950394
1 13.351922 9.478032 4.712399
2 13.743536 8.088429 7.550896
1 12.967939 9.172646 7.492619
1 16.159395 10.297227 10.031621
2 14.790186 9.680692 11.614979
2 15.836947 8.644699 13.640415
2 11.878121 12.524077 15.870504
2 14.047341 8.936170 0.760912
1 13.582317 8.555341 3.167503
1 12.450934 8.185050 2.525902
2 15.562182 10.134651 5.439293
1 15.046839 11.002644 6.093273
1 14.383023 10.137890 6.829226
1 15.454394 10.242043 9.143956
2 15.246361 11.370946 12.016321
2 13.367771 11.149884 13.194761
2 13.323961 11.326182 14.568790
2 15.755516 10.611311 3.501564
2 14.941726 14.208928 2.857154
1 13.257209 10.127734 6.173934
1 14.650303 12.453908 4.385171
1 14.696115 11.565062 6.952577
2 16.248982 14.376748 7.673667
2 14.591908 12.724154 9.013524
1 14.085586 11.739238 11.900037
1 12.601088 13.711878 12.428848
1 13.091790 12.437452 14.926449
2 12.981114 13.211026 0.798620
2 15.306643 11.688234 2.481793
1 14.037107 13.919500 4.431414
1 13.884267 11.166950 5.732544
1 15.486262 12.855643 6.396939
1 14.848337 14.110092 8.222814
2 14.330056 15.662451 10.845601
2 12.451140 16.059052 10.924170
1 12.885109 14.293133 13.108288
2 14.280184 13.423025 14.900522
2 9.649713 16.948912 0.531041
1 15.250337 17.413385 1.171763
2 15.002924 13.799929 3.844986
1 13.732757 15.488138 5.583281
1 15.738254 14.454585 5.430316
2 15.118060 1.457897 10.219569
1 14.185291 1.048110 8.249606
2 13.449412 1.101935 11.599029
2 13.220411 -0.200411 11.733977
2 13.732482 1.410455 14.105821
1 16.104637 0.169743 1.228441
2 13.404901 -1.402992 1.910210
2 13.785023 1.539280 5.207246
1 14.235413 1.956147 6.842815
2 13.521315 -1.314798 5.885271
2 13.739983 2.247160 8.341697
1 15.138173 2.380853 7.644334
1 14.425971 1.931618 11.522276
1 15.975912 1.419197 11.061738
2 15.847142 3.465898 15.165458
1 14.280697 1.439391 -1.911098
1 13.473972 3.883897 2.791538
1 14.202493 3.342320 3.265666
2 13.173949 2.673372 5.146616
1 14.323988 3.326580 7.349521
1 13.421294 4.098357 7.034224
2 12.834575 4.315016 9.774138
2 17.692649 4.758682 10.729605
2 15.092239 3.067747 14.012910
1 14.445081 4.691195 12.652143
2 15.831032 3.406107 2.258537
1 13.229206 4.881597 4.090769
2 15.025193 3.931608 3.509347
1 16.076235 5.681737 5.366927
1 13.364886 3.789229 5.508272
2 13.846149 6.225633 8.256759
2 16.302624 4.232937 10.958663
2 15.806055 3.147329 12.975115
1 12.433217 6.468329 13.193890
1 15.658734 6.188178 15.666698
1 14.949361 6.364535 -0.078491
2 13.370031 5.160193 3.114646
2 14.619965 7.837607 3.672287
1 14.074244 5.685009 6.128812
1 15.813081 5.532431 6.904565
2 15.779283 8.168401 4.312007
2 14.401667 6.939273 9.775483
1 13.025082 8.252009 10.185929
2 13.287564 6.549374 12.363362
2 14.473533 6.842320 14.029778
2 14.512234 4.010979 0.785552
2 15.650333 7.387697 1.334869
2 14.963045 7.607193 2.302219
1 14.707322 4.824976 6.857084
2 15.339726 7.712139 5.726077
2 0.506256 9.245665 9.312154
1 0.247688 8.124506 10.249154
2 0.867875 9.047814 10.849418
1 -0.374798 8.001219 12.348085
1 -0.111599 6.885343 11.513549
2 0.593943 8.049784 -0.170567
1 1.031341 8.687705 1.809357
2 0.732117 6.687122 2.806132
1 -0.173231 8.347499 6.966988
1 0.265274 9.405148 7.160134
2 1.665193 11.167397 7.831867
2 2.257249 10.278741 11.748697
1 1.361528 11.544342 11.576431
1 0.549716 8.672291 12.510885
1 2.308767 7.229735 12.495173
1 1.599467 9.329100 -0.339610
1 -0.792183 7.766839 1.523365
1 1.874221 11.060975 4.032548
1 0.036427 8.901070 4.478884
2 -0.934515 9.121660 6.518390
1 1.656287 9.664439 7.657752
1 1.460966 10.847950 9.182722
2 0.935179 12.494525 10.942912
2 0.945090 9.993673 12.184049
1 0.535989 12.062328 15.296434
1 1.402611 11.160843 0.166882
2 0.933013 10.942322 1.954382
2 2.544554 13.106953 0.689533
1 1.532009 13.033312 7.513723
2 0.506171 11.180495 7.909384
1 0.639064 13.328088 8.447250
2 -0.610520 11.314744 8.506447
2 -0.207781 11.554868 9.767846
2 0.639585 13.633820 11.828373
1 1.060593 13.097614 15.371441
2 -0.934998 12.184201 -0.791435
2 1.226117 13.460432 3.291816
1 0.925703 12.187246 4.774795
1 1.559107 12.893362 4.460924
1 0.721561 13.254208 5.294567
2 0.261410 14.470695 7.107765
1 0.917676 13.155802 10.062393
2 -0.276933 14.542088 11.753415
2 -1.094143 13.810347 12.550496
1 0.838205 16.871494 13.638203
1 -0.208481 14.382531 0.075925
1 1.262705 16.289422 2.394191
1 1.674562 15.463658 3.348182
1 -0.083811 13.732303 6.382470
1 2.889523 13.413150 7.946661
2 1.120944 0.620187 6.794490
1 0.448680 0.613246 11.885132
1 0.490382 0.979277 12.905018
1 1.466368 3.902998 12.090678
2 2.057752 -0.989272 17.002940
2 0.260591 1.156934 0.638806
1 1.113290 0.264143 2.249418
1 -0.085257 1.005311 1.982431
2 3.673358 -0.454466 4.365259
2 -0.547618 -0.724681 5.313078
1 2.148161 3.295183 8.311749
2 1.023686 2.630298 8.267333
2 0.092932 0.648812 8.929692
2 0.943110 1.922593 12.492767
1 0.035016 1.685336 14.211856
1 2.098566 2.459998 2.138449
1 0.588124 2.206617 2.042688
2 0.505707 1.029537 3.058928
1 0.246218 3.301527 4.969906
2 0.238425 2.896475 6.251413
1 1.542329 4.419338 8.468140
1 0.367621 2.538632 9.822819
1 0.282188 4.554309 11.416709
2 0.253876 2.462610 10.871082
1 0.908200 4.373042 14.205422
1 1.538199 4.436117 1.001573
2 0.562918 4.613380 0.200039
2 1.387415 4.464565 2.391828
2 2.177316 5.641549 5.518959
1 2.281773 4.373336 5.285841
2 0.589725 6.967027 9.835015
2 -0.954696 5.105261 10.659921
1 1.122307 6.513383 11.010096
1 1.227857 4.370929 13.017920
2 0.835938 5.983712 14.580986
1 2.137320 6.058843 0.142472
1 2.679033 3.510219 0.749528
1 -0.229280 5.062956 4.365570
2 0.546889 5.879178 3.603706
2 0.838477 4.758721 5.818191
1 0.532122 5.387950 8.407142
1 2.244949 6.404409 9.370171
2 1.197449 7.640208 11.868087
2 -0.957690 7.638663 11.281032
2 -0.938715 5.832801 12.246812
1 -1.721232 7.240533 1.603070
2 2.273183 9.125031 2.655879
1 -0.240687 6.185040 2.329472
2 1.663616 6.252925 4.414721
1 -0.473479 6.845846 5.186633
1 1.149009 8.872679 8.424658
1 2.396060 8.168996 7.756160
2 1.080598 7.551644 10.732095
2 3.115405 9.637918 11.562329
1 3.121542 8.078739 12.630898
2 1.748402 7.302951 0.752478
1 1.268726 7.936431 2.323604
1 3.930187 8.665155 3.709197
2 1.158738 9.263547 6.214952
2 0.202466 6.156681 7.338868
1 0.094173 10.037524 7.848771
2 1.859378 9.343565 9.394963
1 3.003699 8.383885 11.352986
2 4.060234 9.914052 12.381556
1 -0.666379 9.765845 12.812804
1 1.570907 9.931624 1.722428
2 1.955747 8.774052 4.326402
1 2.679019 7.682769 4.941978
1 1.045372 9.719560 2.704659
1 0.826226 10.429873 6.585633
2 3.508896 11.659677 10.863013
2 1.392715 11.669417 9.816226
2 2.320013 11.853269 12.039194
2 1.573651 11.081224 12.598206
1 2.113443 12.029175 17.269489
1 2.097616 8.584322 0.237321
2 3.232751 11.400450 1.659902
1 3.416258 10.788694 5.921003
2 6.388133 12.333228 5.691814
2 2.059169 12.262631 8.634023
2 2.758553 10.381524 7.919778
1 2.395825 13.488274 9.444544
2 2.199703 12.343301 11.001014
2 2.204891 11.952348 14.852007
1 3.642223 13.983258 14.471787
1 1.040217 12.819939 1.800821
2 3.607917 13.888914 1.472833
2 3.233238 13.131113 2.360540
2 3.650989 11.384618 3.251144
2 0.729304 11.762945 6.484759
1 2.298569 14.439485 10.648297
2 0.920511 14.222457 8.960429
2 1.524800 16.888109 10.167381
1 1.548831 14.732039 11.457157
2 1.908777 13.588053 14.831409
1 1.267395 16.298991 0.718031
1 2.185168 13.811810 3.624686
2 2.420157 12.518657 3.754544
1 1.498048 17.022282 5.280969
2 3.195961 13.560658 4.751875
2 1.586889 0.023666 8.581046
2 3.246119 0.966664 10.866317
2 1.731735 0.937153 11.954831
2 -0.027899 -0.545804 13.104406
2 1.073966 -0.109916 12.565684
2 0.927660 2.389952 -0.111391
2 2.340268 -0.675610 0.961889
2 2.432492 -0.240962 4.545790
2 1.918109 2.115355 3.149455
2 2.182381 0.615637 7.545426
1 0.623236 0.624703 5.512747
2 2.468098 0.528279 9.981133
1 4.386688 1.664191 11.504295
2 3.715619 5.108554 14.681075
2 3.397833 3.010757 14.707584
2 2.323568 2.123520 0.789810
1 3.014910 1.418482 2.811625
1 3.293276 3.915398 2.670398
1 2.117244 0.927303 4.613793
1 2.635254 2.307338 8.036225
1 1.917117 1.046950 5.968473
1 1.728312 4.712289 9.693343
2 3.373835 4.217601 9.727929
2 2.174515 3.541345 13.019307
2 2.030427 2.348914 13.892186
2 4.804635 3.305897 -0.656909
2 3.751824 2.751326 2.477479
1 3.008565 1.746210 3.861613
2 2.229297 2.885012 5.895437
1 3.111910 3.477471 5.150487
2 2.829739 4.837690 7.113388
1 2.658852 5.339251 9.844044
1 0.490567 3.488398 11.899909
1 1.516509 3.091805 11.537882
2 1.484342 6.837901 14.491029
1 2.841778 6.370873 -0.778716
1 2.961622 5.480683 0.625916
2 1.606199 3.440644 3.634682
2 2.397978 5.204527 4.505629
2 4.731772 2.816769 6.761775
1 -0.152746 8.922167 8.402326
2 1.355752 7.589518 9.588990
1 3.336656 6.609334 10.120580
2 2.146080 7.171687 10.339290
2 1.636258 8.140377 14.259182
1 2.075059 6.440579 2.157985
1 3.394121 8.547843 1.739125
2 1.593947 7.007057 3.394737
2 2.085233 8.070539 3.429754
1 1.998044 7.420166 8.583015
2 4.782374 8.106639 8.483088
1 -0.211243 7.798533 8.789126
1 3.352962 8.171257 9.990458
2 3.638629 7.080025 13.631019
2 4.832680 9.372957 13.020148
1 2.303627 8.764832 1.606294
2 3.333211 9.539090 2.900238
2 3.465060 7.859875 2.673390
2 5.468963 8.703421 5.377233
2 3.249140 7.779977 6.398270
2 4.159943 9.296540 8.809413
2 3.648818 9.605163 10.005911
2 3.136185 10.505029 10.968827
2 4.015078 8.860516 11.621156
1 1.045407 10.010592 13.789764
1 3.692252 9.599415 0.519046
1 2.641902 10.651451 2.763295
2 4.147041 8.989711 2.503342
1 2.997994 9.612524 4.548382
2 3.051805 9.796083 7.129474
1 5.178770 12.578479 7.951645
1 1.288702 9.900808 8.672183
2 4.390085 12.250554 9.836086
2 3.718978 12.287794 12.221692
2 1.724921 12.882669 14.134326
1 4.920710 11.207254 1.653005
2 6.075691 11.222442 1.935436
2 3.003481 11.203382 4.679460
1 4.649712 11.885653 3.758775
2 5.248407 10.425013 7.312473
1 4.759009 11.338337 4.810470
1 2.893601 9.195727 9.263169
2 2.155293 11.297840 10.621220
1 4.903043 13.225479 8.947688
2 3.196919 10.891445 15.463475
1 3.380829 16.838821 0.524785
2 4.331351 13.476272 2.586010
2 3.996492 12.239222 1.508404
2 4.778399 9.408036 4.927396
1 3.969661 13.202660 6.584063
1 4.276997 16.335486 8.839892
2 2.954138 13.667783 10.953455
1 1.939374 13.425024 10.486515
2 3.198562 14.981455 11.669209
2 3.940046 14.053299 12.011854
2 5.021453 11.629338 0.338656
2 3.278981 16.868037 1.534105
1 3.180257 12.403211 4.459962
1 3.104911 13.327811 3.628990
2 1.964863 15.031786 6.413299
2 3.080531 0.339646 8.745007
2 4.080750 1.562696 10.394433
1 4.926026 1.423278 12.465682
1 5.553692 0.732588 13.229303
2 5.705999 -0.189393 12.127750
2 4.406605 0.540440 -3.288270
2 2.622312 0.025026 1.841397
1 2.978689 -0.467480 3.630155
2 3.660640 -0.302887 6.099826
1 3.191222 0.735002 6.157200
2 4.214389 4.237755 7.701724
1 4.628204 5.289184 8.177159
2 3.944497 3.425784 10.709236
2 3.811115 4.665985 11.708750
1 2.434931 3.407582 14.118722
1 2.373373 1.122344 1.139318
2 5.199963 0.293244 0.791200
1 4.363824 1.934546 3.201418
2 4.207267 2.205393 5.867662
1 4.818517 0.246972 7.084823
1 5.904324 5.293314 8.148294
2 2.871207 6.238412 7.900804
2 4.849042 4.585921 10.504318
2 2.841715 4.102468 11.642239
1 4.821551 2.250994 14.729767
1 2.979694 4.743860 1.270374
1 2.251379 4.184478 1.888964
1 3.036819 4.922083 2.642100
2 3.859389 3.478007 3.818808
2 3.275167 3.060859 8.049754
1 3.081233 7.477137 7.640480
2 3.002153 5.975638 10.850338
1 5.573108 5.921500 11.798719
1 2.936373 6.342527 11.904259
1 5.212760 3.838854 15.186822
2 5.195993 5.639384 -1.069271
2 4.402603 4.952089 0.898162
2 3.395108 6.342731 1.264526
2 2.594263 4.062449 4.082977
2 3.651168 4.502271 6.029875
2 5.133453 6.324731 7.924696
2 4.077075 7.490317 9.173248
1 3.138402 5.895630 9.022499
1 4.107046 4.915363 12.817817
2 3.916696 6.872567 14.886403
1 3.298029 7.440280 1.521715
2 2.334852 7.553608 1.870098
2 4.302970 6.729718 3.048933
2 2.273159 6.790718 7.187265
1 1.768146 5.708051 7.669062
1 5.674236 7.968991 7.080557
1 3.125815 8.907224 8.313486
1 3.972667 7.717253 11.153231
2 7.012412 6.333754 13.107398
2 5.184021 8.541008 15.095319
1 5.988782 8.066296 2.393226
1 4.433808 9.904413 2.105860
2 4.818037 8.320179 4.482887
2 4.279748 7.094112 6.967122
1 4.784863 8.853881 7.295774
1 6.112688 10.002433 5.121406
2 5.479204 9.016053 10.259665
1 4.883538 10.408218 10.500972
1 4.343935 11.671161 13.192930
1 5.556094 9.636876 14.371967
1 4.154060 9.235052 1.454503
1 5.550322 9.956085 3.020848
1 3.855203 10.451986 4.189006
1 5.089354 9.262977 3.673876
2 5.500059 9.723401 8.697849
2 4.604789 9.334771 6.360694
1 4.748208 10.327747 9.486583
2 5.499999 11.406505 10.133897
2 3.073753 11.178464 12.719430
1 7.164754 11.561171 14.380589
1 6.122041 11.817751 0.708658
2 4.961616 10.264743 4.252404
1 5.514772 11.694623 2.788740
1 5.789622 10.995653 5.333527
1 7.061246 11.144110 6.809639
2 6.139879 13.544824 6.579726
2 4.396489 11.795898 8.915464
2 4.696426 13.171321 12.461947
2 5.812175 13.059634 12.179811
1 5.762450 11.553017 14.248996
2 5.779223 10.740682 0.030884
2 5.619968 12.312585 1.621777
2 5.986991 11.974785 4.151190
2 6.186110 13.386719 5.433664
1 4.264144 12.362436 7.291239
2 5.334893 12.849209 6.856352
1 4.835052 14.162670 10.056970
2 3.142975 12.774401 11.508928
1 7.104096 14.424144 13.732272
2 4.867265 13.730456 14.368228
2 6.577497 13.302787 2.030777
2 5.082933 14.794344 3.285663
1 3.436868 15.129386 1.110622
2 4.773577 14.096299 4.177295
2 3.572351 12.825196 5.522214
1 5.580254 0.776083 8.079425
1 5.541799 -0.015490 10.017322
1 7.157543 -0.186650 11.391868
1 7.559995 2.463241 12.688208
2 6.661417 0.280750 12.386448
1 5.412295 0.587515 -0.468480
2 5.694850 1.895354 3.832375
2 3.861582 0.665437 2.365141
2 5.847171 1.694661 5.676924
1 7.270913 -0.590293 7.274353
1 5.629236 2.910869 10.374722
1 6.151367 1.893244 8.813623
2 5.647225 0.235117 8.979573
2 6.060789 2.261854 11.876116
2 4.498316 3.732350 13.243772
2 6.674510 0.728395 1.293291
1 4.494550 1.665348 1.830073
1 4.112377 1.879010 4.530457
1 3.375003 1.158073 4.622452
1 4.831853 1.571801 6.794930
2 5.101340 3.906523 7.107686
2 4.811363 4.308947 9.030381
1 4.408239 3.817060 12.057724
1 7.069777 2.507639 14.143931
2 3.712856 4.153448 15.399632
1 4.751774 2.759098 1.535720
1 2.964489 2.761919 3.342657
1 6.702921 3.167902 6.179732
1 5.059867 2.324775 5.134602
2 4.144129 5.251710 6.770181
2 4.321324 5.784244 9.322029
1 3.858667 5.214929 10.685476
1 7.781350 3.786382 12.553026
1 5.504299 4.271887 13.560587
1 4.666162 5.653250 14.859254
1 4.411055 6.180568 1.066751
1 4.217508 7.219026 2.068009
2 4.353332 5.246546 3.337355
1 4.840882 6.109838 3.843309
2 5.331234 5.559505 6.929559
2 5.744289 7.554333 9.637921
2 5.609423 5.411721 10.591713
1 5.424019 9.829933 11.335302
2 5.026809 7.977859 14.131437
1 6.187595 7.286950 16.274215
1 4.935456 7.383707 1.124904
2 5.231833 5.895807 2.738239
2 4.792511 7.842390 2.725149
1 5.846461 8.860528 4.358595
2 6.349963 6.355101 8.102825
1 8.053283 9.467859 9.140567
1 6.316826 7.795016 7.953066
1 6.651627 6.404219 11.949550
1 7.542487 6.165019 14.880421
1 7.928450 10.209771 15.564673
2 7.526309 7.318065 0.143247
2 7.760832 7.168511 2.783285
2 5.372466 7.216086 5.012482
2 4.744305 8.043476 6.159044
1 6.159070 8.108937 5.946136
1 7.262158 9.799009 7.285224
2 7.007501 9.468755 9.133487
2 6.695508 8.556631 11.711606
2 5.912179 10.763938 12.408195
1 5.583802 10.749863 13.633439
2 7.058104 8.169805 1.921518
2 7.492485 8.785407 2.956275
1 7.358204 9.571718 4.703381
2 7.489971 10.657501 4.391677
1 6.909668 10.309478 5.842907
1 7.101622 12.355605 6.672225
2 7.065619 9.878013 10.607056
1 5.741997 10.822780 11.029294
1 6.561877 11.219319 13.618867
2 5.796624 13.497537 13.259359
2 6.638704 9.491855 0.500254
1 6.995087 12.859433 0.352949
1 8.383972 12.993651 3.416885
2 8.020407 10.775852 6.829710
2 3.996360 10.266004 6.713539
2 8.258525 13.589929 7.687935
2 7.943762 14.154621 9.410799
2 7.357537 11.857573 11.646318
2 5.907267 12.120326 13.199814
1 4.516394 14.581800 12.927261
2 5.870986 12.995788 -0.290738
2 7.244624 14.007835 3.728192
1 8.810053 12.785053 4.696690
2 7.508684 11.490009 5.848734
1 7.027554 12.859735 4.824384
1 7.348585 15.695017 9.190766
2 5.475650 14.097537 11.062864
2 5.649773 15.554196 11.121469
1 7.100694 13.027388 11.948276
2 6.939773 13.450322 14.076446
2 6.914382 15.448834 -0.645083
2 6.258827 14.932073 0.658631
1 6.097813 14.202215 1.494613
2 5.327511 14.307251 6.114310
1 5.549729 13.936268 7.496003
1 7.961938 0.953178 8.026068
1 7.389578 -0.780949 10.653339
2 9.031625 0.051843 10.030749
1 7.129684 2.293588 11.755177
1 7.341983 1.044363 15.406468
1 6.089092 1.529067 0.382964
2 9.527426 0.872125 2.256447
2 5.954824 1.075602 4.688548
1 6.286996 -0.474346 5.311272
1 6.024296 0.197706 6.216224
2 3.767322 2.017865 7.915845
1 6.086675 1.811241 7.417851
2 5.485112 1.929483 10.988639
1 6.907013 2.056696 15.854181
2 7.727313 2.041186 14.922210
1 6.082138 3.092934 1.498161
2 6.486132 1.471693 2.731006
1 6.765522 2.502812 3.874280
2 4.397045 3.343873 5.366780
2 5.820290 3.031584 7.217350
1 6.446323 4.075874 7.026131
1 5.926113 3.987340 10.291472
1 6.250792 3.007605 11.160917
1 6.542127 4.086999 11.216411
2 8.452018 2.946994 13.555801
1 6.389389 4.348496 0.505974
2 7.536312 3.764211 1.265910
1 4.961135 2.687819 4.001575
2 6.964790 5.535130 5.408680
1 6.049872 5.026531 5.676396
1 6.898025 5.193723 9.057216
1 6.763396 4.702653 10.091760
1 8.063752 7.998512 11.723465
1 7.891047 5.228003 12.317138
1 4.715760 6.421912 13.050454
2 5.318445 4.881802 -0.143496
1 7.030856 3.279318 2.298239
2 5.794140 6.096247 1.675560
2 7.438858 3.815774 6.597919
2 6.903816 5.078499 6.529129
2 6.868850 7.062153 8.931510
1 4.879761 6.712150 8.835247