1000
Lattice="10.772173450159416 0.0 0.0 0.0 10.772173450159416 0.0 0.0 0.0 10.772173450159416" Properties=:species:S:1:pos:R:3 Time=1000
2 6.350226 5.567588 5.933779
2 5.559413 5.448189 7.181935
2 6.396869 5.605005 7.906650
2 5.548066 6.174208 8.848312
2 5.872653 5.931894 10.099878
2 6.456808 6.741745 0.751341
2 5.397329 5.902671 1.368020
2 6.261731 5.989686 3.035067
2 6.293816 5.727962 4.123353
2 6.056543 4.649255 5.268007
1 5.696427 7.051826 5.590482
2 5.806350 7.267621 6.823964
2 5.365996 6.478616 7.523132
2 5.877270 7.051956 9.344124
2 5.889473 7.036952 10.458331
2 5.953581 7.769755 0.432739
2 5.765459 7.454832 1.456385
2 5.873385 6.971922 3.087460
2 6.630045 6.794664 3.975439
2 5.767095 7.313408 4.441520
2 4.883847 7.825087 6.178003
1 6.752717 7.843350 6.783310
1 5.750195 7.347028 8.136494
2 6.047179 8.192146 9.070618
2 6.445558 8.044948 10.210696
1 6.545130 8.610134 0.311886
2 6.096393 8.590547 1.359004
2 6.298524 7.848394 2.635823
1 5.887009 8.014467 3.595542
2 5.581400 8.440299 4.741044
2 6.093334 9.210580 5.209079
2 5.228815 9.602538 6.515633
2 6.477622 9.135827 7.343758
2 6.060947 9.607898 8.599931
2 6.644625 9.201758 10.035472
2 5.690742 9.237923 -0.009689
2 5.290107 9.476171 1.054918
2 6.380591 8.929764 2.816222
2 6.714424 8.418579 4.430236
2 6.335567 9.313172 3.989946
2 6.338607 10.223376 6.046745
2 5.363340 9.548440 7.768985
2 6.527853 10.453263 8.172605
2 5.793703 11.130694 9.315724
1 5.487181 10.036585 9.965127
1 5.354721 10.283507 0.439238
2 6.300651 9.718373 1.938091
2 5.012185 10.224391 3.061360
2 5.717018 10.253025 4.114291
2 5.498541 10.157219 5.345601
1 5.663854 0.290736 6.491977
2 6.233397 1.086107 8.401144
2 5.935734 0.702196 7.394250
2 5.095696 1.058860 8.780081
2 5.849380 0.234472 10.638938
2 6.237481 0.963883 0.920361
2 5.729619 -0.131382 2.249374
1 6.499340 0.304772 3.028362
2 5.539655 0.554205 3.696508
1 5.953231 0.299893 4.643384
2 5.901198 1.282927 6.261155
2 5.886249 2.453301 7.661291
2 5.445487 2.195570 8.973629
1 5.969231 1.382701 9.455367
2 5.718799 1.396077 10.597164
1 6.215100 2.130029 0.481547
2 5.808483 1.162719 1.925723
2 5.566815 2.085839 2.941910
2 6.607530 1.540099 3.215669
2 5.697527 1.399608 4.782817
2 5.675322 2.411095 6.328059
2 5.928780 3.372432 6.925371
2 5.582978 3.265731 8.268513
2 6.338694 2.975332 9.140046
2 5.329083 2.508490 10.946890
2 5.317101 2.986246 1.205192
2 5.860339 2.388482 1.953613
2 6.175511 2.880853 3.512311
2 5.406765 2.515978 4.302672
2 5.911016 2.649045 5.192372
1 6.594735 3.646535 5.981670
2 5.819018 4.214182 7.606229
2 5.481024 4.235716 8.893204
2 5.724018 3.694198 10.260817
2 6.389671 3.216259 11.123507
2 5.204972 3.758082 0.490850
2 5.901014 3.897050 1.431929
2 5.597997 4.250260 2.876769
2 5.300188 3.452885 3.587738
2 6.235765 3.621040 4.613513
2 6.005103 4.422583 6.315094
2 6.836299 5.132352 7.012706
2 6.554401 4.578986 8.463882
2 4.746525 5.473368 9.220000
2 5.668242 4.788615 9.751552
2 6.190646 4.681516 0.877402
2 6.597249 4.540882 2.084367
2 5.481171 4.968427 2.009191
2 6.500466 4.955270 3.175281
2 5.632411 4.484732 4.048643
1 7.187771 5.922697 6.288905
1 6.046306 6.223517 6.811020
2 7.349942 5.179284 8.047382
2 6.433346 5.499925 9.083078
2 6.755401 6.443052 9.594677
2 6.381104 5.775142 0.250689
1 6.451181 5.598140 1.401025
2 7.058833 5.542454 2.434840
2 7.419785 5.848044 3.599549
2 7.444381 6.288412 4.505054
2 6.603967 6.939895 6.109681
2 7.721210 7.038609 6.849216
2 6.622763 6.848977 7.642048
2 7.087510 6.285974 8.460972
2 7.218136 7.410094 9.654387
2 7.199849 6.348526 -0.177465
2 6.163819 6.527560 1.932301
1 6.949436 7.030070 2.555211
2 7.725096 6.783896 3.333657
1 6.306309 6.480953 5.006331
1 6.379159 7.799830 5.554323
2 8.271392 8.069768 6.697633
2 6.596572 7.977893 7.739444
1 7.020627 7.936134 8.643360
1 7.408347 8.316986 10.472601
2 7.046445 7.424749 0.143340
1 6.861642 7.868923 1.000837
2 7.795221 7.584436 2.194223
1 7.132463 7.783446 3.750932
2 7.385252 7.937978 5.954352
2 6.653264 8.665232 6.096435
2 7.305449 9.607222 6.471117
1 7.006135 8.907173 8.392057
2 7.569696 8.878082 9.527901
1 7.313937 9.289369 11.052031
1 6.442841 9.520801 0.878229
2 6.958359 8.526718 1.983578
1 7.159438 8.830233 3.447293
1 7.391562 9.585146 4.264579
1 7.384531 9.097883 5.136986
1 7.408157 10.427990 5.595146
2 6.007629 10.188824 7.074402
1 7.031095 10.073783 7.357965
1 6.784421 10.796570 9.957393
2 6.636063 10.215547 10.772389
2 6.394733 10.548561 1.139385
2 7.365005 9.456890 1.546300
2 7.367312 9.959154 3.063065
2 6.152567 10.043800 3.032296
2 6.597064 10.089598 4.861737
2 6.596985 0.680296 5.521279
1 6.789844 0.043957 6.681748
2 7.204217 0.489814 7.625570
1 7.840125 -0.196655 9.066477
1 6.753556 1.038739 10.276375
2 7.041313 0.502724 0.372572
1 7.226233 0.547963 1.377753
2 7.155823 -0.169053 2.150136
2 6.825709 -0.174703 3.941962
2 7.620240 0.113805 4.751015
2 6.574525 1.806654 5.430480
2 6.418616 1.634804 7.408512
1 6.528366 2.061651 8.548887
1 7.002542 0.900119 9.268861
2 6.156597 2.399739 10.134624
2 7.364733 1.527814 0.367568
1 6.835343 1.911232 1.385391
2 6.802222 0.939169 2.249605
1 7.322649 2.193900 3.825396
2 6.885546 0.923721 4.426327
2 6.777018 2.434131 6.239802
2 6.917654 2.956943 7.178389
2 7.659263 2.717279 8.019710
2 7.321482 2.284635 9.314076
2 6.754250 3.192754 10.066797
2 7.256575 2.611870 0.519914
2 6.613106 3.045602 1.435360
1 7.046171 2.708535 2.546584
2 6.428352 2.080112 4.333525
2 6.939705 2.865964 5.309804
1 7.538047 3.439431 6.288294
2 6.807054 4.066743 7.072822
1 6.570147 3.585358 8.065057
1 7.240271 3.450773 9.116181
2 7.256689 4.157267 9.954124
2 8.218393 3.879771 0.903826
2 7.216535 3.939812 1.313343
2 6.247564 3.404381 2.416822
2 6.610400 3.887964 3.559372
2 7.140420 4.207736 5.227978
1 7.118029 4.565955 6.150234
2 7.882538 5.215806 6.509796
2 7.516749 4.063688 8.035481
1 6.372696 3.980197 9.347373
2 6.694735 4.400235 10.767698
2 7.516799 3.576514 0.170521
2 7.645161 4.981486 1.510372
2 7.285592 3.834118 2.648677
1 7.014090 4.959109 4.178333
1 7.074016 5.389168 5.215827
2 8.113939 5.341316 5.499488
1 7.169329 6.043153 7.305229
2 8.018658 6.320418 7.748038
1 7.626319 5.873466 9.324190
2 7.200226 5.389452 10.243529
2 9.084019 7.052093 -0.097129
1 8.059905 6.242876 1.342012
2 7.856553 6.331132 2.347324
1 8.449662 6.229560 3.907505
2 8.482933 6.459885 5.043807
1 7.617833 6.909837 5.619964
2 8.780502 7.215936 7.194727
2 7.681648 7.389347 7.913900
1 7.828888 7.005603 8.852292
2 8.372253 6.502720 9.762785
2 8.120189 6.988291 0.334596
2 7.241815 6.818712 1.454376
2 8.218279 7.988033 3.206142
2 8.110281 7.146105 4.242995
2 7.062007 7.312622 4.769427
2 8.982645 8.714220 7.350233
2 7.525594 8.727640 7.079697
2 8.549246 7.932655 8.206908
1 8.540324 8.462553 9.527902
2 8.269583 7.597791 10.220069
2 8.392332 7.474114 1.267123
2 8.165910 8.495317 1.670235
1 8.879696 8.755280 3.370500
2 7.944848 8.433839 4.104905
2 9.146410 8.350787 5.864692
2 8.168925 9.053665 6.027484
2 8.180507 9.558126 7.295928
1 7.946313 8.748790 8.064032
2 8.794386 9.826704 9.149182
2 7.601511 9.840346 10.049454
1 7.874263 8.185153 0.625389
2 8.139162 9.114830 0.792396
1 7.709706 9.085198 2.481672
2 8.346045 9.683986 3.617179
2 8.435661 8.947012 4.875572
2 8.517624 10.177790 6.022020
2 7.826337 10.578802 6.907040
2 7.997055 10.428869 7.889437
2 7.897576 9.569078 8.696940
2 6.757432 10.105079 9.241959
2 7.523653 10.268440 0.636813
2 8.102308 10.408945 1.549788
2 8.230406 10.821451 2.668946
1 8.018984 10.622828 3.642681
1 8.207439 10.031377 4.926238
2 7.964840 0.461414 6.066710
2 7.159530 1.085882 6.433166
2 8.122932 0.612139 8.443844
2 8.642065 0.296313 9.503494
2 7.964739 0.164873 10.520297
2 8.074466 0.522785 0.766726
1 7.787785 1.540596 1.491174
1 7.545083 0.754832 3.253091
2 8.848927 0.582526 4.099505
1 7.984257 1.071090 5.245471
2 8.758413 1.325987 6.047831
2 7.809162 2.095979 5.985954
2 7.382295 1.497551 8.284728
2 7.984471 1.191956 9.373846
1 7.170044 2.183055 10.394323
2 8.586823 1.550295 0.563587
1 7.643876 1.744238 2.476277
2 8.464799 2.264496 3.067078
2 8.045322 1.264097 4.184831
2 7.569853 2.002017 4.971193
2 8.607852 2.354364 5.290349
2 8.132513 2.946072 6.987906
2 7.549180 1.886740 7.179533
2 8.250833 2.163433 9.005351
2 7.845522 3.058387 9.955805
2 8.606261 2.958480 0.208009
2 7.623314 2.650921 1.476463
2 7.792249 3.053524 3.260986
1 8.254873 2.363011 4.172682
2 7.312333 3.264406 4.354587
2 7.959936 3.403224 5.266354
2 9.243703 4.195630 6.438014
2 7.937742 4.152691 7.003372
1 8.496527 3.627084 7.958451
2 8.290533 3.482952 9.041789
2 8.111166 4.690925 0.094393
2 8.084692 3.305746 2.207620
2 8.039917 4.533263 2.393401
1 7.562042 4.667633 3.355378
2 7.948949 4.195793 4.590894
2 8.204841 4.261006 5.954331
2 8.346681 5.203481 7.502360
1 8.260284 4.414287 8.550946
2 7.243806 4.811295 9.164292
2 8.400782 4.623509 9.603840
1 7.261891 5.446211 0.673134
1 8.871317 4.514759 1.434264
2 8.708587 5.399880 1.970398
2 8.353427 5.274346 3.315855
2 7.991396 5.239899 4.387547
2 9.242545 5.831353 5.435682
2 8.373824 6.288758 6.201883
1 8.295160 5.768588 8.603353
2 9.152004 6.436059 9.001471
1 8.414310 5.656980 10.461706
2 8.933845 6.370726 0.696365
2 9.469963 6.279639 1.860419
2 9.939165 5.589166 2.872410
2 8.841441 6.097884 2.818486
2 9.159819 5.329368 4.337820
2 9.002452 7.137790 5.755834
2 9.432922 6.475231 6.627933
2 8.747230 6.915359 8.213210
2 8.801763 7.486962 9.147935
2 9.732206 6.904903 9.784213
2 9.573658 7.297812 1.076836
2 9.917832 7.572344 2.049185
2 8.720007 7.037852 2.429728
1 9.012612 7.150066 3.458598
1 9.280802 6.798538 4.435512
2 9.945343 8.674691 6.560256
2 9.672198 7.539060 6.522661
1 9.642486 7.421248 8.584889
2 9.483627 8.428630 8.958152
1 9.297589 8.325980 10.217512
2 8.923160 8.158407 0.386229
2 8.934230 8.141230 2.313222
1 9.765851 7.864021 3.207434
2 8.948702 7.865658 4.201585
2 8.330495 7.814681 5.180959
2 9.266557 9.385978 5.732046
2 9.557207 9.831114 6.681162
1 9.593284 7.884975 7.612236
2 9.757391 9.537026 8.762812
2 8.295882 8.876595 10.389625
2 9.398466 8.510686 1.413241
1 8.755001 9.544524 1.630431
2 9.080696 9.533963 2.671218
2 9.773026 9.213163 3.528199
2 9.409646 8.885451 4.499973
1 9.503857 10.453888 5.643935
2 8.934404 10.587983 7.339288
2 8.945738 9.630114 8.060125
2 9.106820 10.619984 8.502735
2 8.732997 9.917579 10.358289
2 9.215238 9.430679 0.537292
1 9.097647 10.549833 2.042200
2 9.184486 10.432214 3.380755
2 9.070604 10.226949 4.398850
2 9.978083 9.815703 4.999242
2 8.969791 0.402482 6.425270
2 8.099030 0.981030 7.053636
1 8.992702 0.827913 7.572876
1 9.095824 0.902958 8.751207
2 9.002996 -0.078419 11.063561
2 9.362474 0.905503 0.406500
1 8.946819 0.552845 1.462041
2 8.732696 0.863389 3.110506
2 10.122921 1.125518 4.058154
2 8.683247 0.201335 5.269409
2 9.651121 2.072074 5.897638
2 9.492167 1.508942 6.883396
2 8.525948 1.502313 8.152161
2 9.385524 1.786951 9.394499
2 8.664129 1.117406 10.380091
2 9.629355 1.926399 0.861009
2 8.668217 2.101402 1.855526
2 9.625949 1.795851 2.936214
1 9.129129 1.632212 3.815230
1 9.195556 1.251864 5.105839
1 8.945562 2.863947 6.292665
1 8.729935 2.541533 7.776451
1 9.197051 2.632728 8.665655
2 8.972014 2.743975 9.715798
2 8.276226 2.162500 10.350317
2 9.656008 3.020683 0.013826
1 8.687401 3.112845 1.363115
2 9.149086 3.145526 2.421087
2 9.281434 2.728537 3.572983
1 9.373685 2.375284 4.529146
2 9.980167 5.326720 5.892680
2 9.359247 4.470594 7.769796
2 9.657329 3.547308 8.355851
1 9.147327 3.987609 9.245511
2 8.514298 3.846100 10.271084
1 9.239492 3.829313 0.390821
1 10.006063 4.291316 0.962925
1 9.370436 4.216551 2.245243
2 8.505192 3.880529 3.317887
2 8.607653 3.248094 4.390634
2 8.994351 5.359290 6.380380
2 9.342120 5.621802 7.417099
2 9.290757 5.153196 8.516941
2 8.952318 5.586667 9.538550
1 9.162107 4.887278 10.548013
2 8.356278 5.389554 0.790331
2 9.951411 4.928608 1.956481
1 9.262277 4.794681 3.140976
2 9.245516 4.181082 4.165454
2 9.035722 4.688556 5.254011
2 10.294163 5.833999 6.735135
2 9.780514 6.560564 7.988575
2 10.168707 6.058332 9.101753
1 10.778774 5.546081 10.151077
2 9.569208 5.968167 10.321815
2 10.188085 6.109686 0.648998
1 10.443248 6.216692 1.655821
2 10.979030 6.539002 3.063443
2 9.582475 6.198151 3.718027
2 10.393711 5.570757 4.860588
2 9.983051 6.689088 5.724609
1 10.425551 6.991146 6.937159
2 10.555036 7.273417 7.937203
2 10.608284 6.531385 10.482822
2 9.967214 7.587521 10.747490
2 10.815527 6.936831 0.775810
1 10.819472 7.085248 2.119254
2 9.948109 6.683022 2.749496
2 10.174224 7.107406 3.824934
1 10.147952 6.498346 4.624974
1 10.433408 7.751861 5.915023
2 10.649892 7.970830 7.031011
1 10.411925 8.085495 8.514167
2 10.274998 8.506172 9.733583
2 10.078952 8.830460 10.827471
2 10.521736 8.034372 0.726135
1 10.412151 8.402489 1.751078
1 10.761624 7.649805 3.143508
1 10.183971 8.296260 4.083827
2 9.722957 7.612631 4.928753
1 10.378269 9.809208 5.962004
2 10.826577 9.160276 7.091849
2 9.979838 8.884655 7.787678
2 10.544677 9.954791 9.735658
2 9.472079 9.271342 9.872019
1 9.583454 10.064990 1.307270
1 10.351230 9.411389 2.081290
2 10.389607 8.612570 2.848026
1 10.595607 9.181952 4.238138
2 10.193076 8.600411 5.157152
1 11.132108 11.376976 6.594351
2 10.795786 10.164650 7.077930
2 9.976742 10.165858 7.766756
2 9.601399 10.500102 9.555847
1 10.075539 9.903669 10.829200
2 10.164200 10.910593 0.271595
1 10.751730 11.062547 1.647824
2 10.121527 10.137963 2.950929
1 10.122383 10.654129 3.970865
2 10.767390 10.534596 4.802895
2 9.833744 0.981348 5.906034
2 10.089350 0.307133 6.849476
1 9.945638 0.544288 7.925352
2 10.113375 0.855973 8.978484
2 9.648860 0.764881 10.156997
2 11.460423 1.259688 -0.345221
2 10.073491 0.920930 1.318984
1 9.273918 1.089598 2.219618
2 11.013486 0.507197 4.027226
2 9.844360 0.312097 4.830076
2 10.937738 2.981828 6.082241
2 10.712975 1.663372 6.166998
2 9.775893 1.708422 7.932156
1 11.190794 1.421069 8.763979
2 9.525195 1.880208 10.608502
2 10.383353 1.319320 0.233552
2 9.783380 2.213512 1.951358
2 10.446823 1.411912 2.336705
1 10.177523 2.331418 3.923448
2 10.173301 1.544498 5.058991
2 9.034617 3.482840 5.372879
1 8.637803 1.989507 6.838579
2 10.156151 2.823602 7.781391
2 10.303430 2.303261 8.736294
2 10.279980 2.536877 9.915712
2 10.506361 2.429483 0.195152
2 9.790881 3.084937 1.100828
2 10.258270 2.700436 2.908834
2 10.949226 2.938563 4.365164
2 10.125987 3.253093 5.279036
1 10.371205 3.888832 6.382987
2 9.395282 3.396090 7.214523
1 10.373587 3.847719 7.564803
2 10.231110 3.569360 9.228166
2 9.635176 4.025009 10.249007
2 10.876363 3.395187 0.863396
2 11.359599 4.088929 1.679838
2 10.678182 3.124512 1.966190
1 9.855341 3.912670 3.295255
1 9.777701 3.393980 4.309102
2 10.933901 4.529445 5.785523
2 10.035174 4.789557 6.968719
2 10.251997 5.415831 8.235032
2 9.860025 5.079184 9.535799
2 10.243682 4.936304 10.761208
2 9.403497 5.209730 0.776144
2 10.759167 5.261037 1.101664
2 10.579302 4.248413 2.468168
1 10.087705 4.895792 3.987873
2 10.157162 4.251487 4.912802
2 0.266603 5.651680 5.823935
2 0.148795 6.131116 7.589965
2 0.390077 5.519978 8.695147
2 0.372345 6.301456 9.542268
2 0.992023 5.658353 10.049868
1 0.446371 5.969750 0.275943
2 0.763915 6.405695 1.759599
1 0.964152 5.555848 3.110577
1 -0.242579 5.768183 3.696182
1 0.416665 6.522837 5.302875
2 0.483459 6.558245 6.465836
2 0.949132 7.211485 7.231448
2 0.500954 6.549808 8.542228
2 -0.199785 7.205070 9.164862
1 0.915768 6.843013 10.400516
2 1.127564 6.941496 0.795954
2 0.666016 7.590204 1.456457
2 1.024302 7.361802 2.546521
2 0.701185 7.673125 3.941911
2 0.118683 7.485045 4.894715
2 0.772417 7.535584 5.813989
2 0.912277 8.181532 6.750777
2 0.484082 8.559572 7.797654
2 0.847225 8.330782 9.048461
2 0.268030 7.722050 10.252379
1 0.774162 7.783066 0.304343
2 0.474101 8.657838 1.053559
2 0.710147 8.601314 2.192096
1 0.375198 8.566883 3.642677
2 0.502454 8.566248 4.936569
1 0.060775 8.901306 6.006539
2 0.791689 9.642692 6.335166
2 0.110130 9.055697 8.774774
2 0.664938 9.321966 9.669556
2 0.556086 8.891577 10.826144
2 -0.561981 9.276235 1.086516
2 0.659518 9.624285 1.761864
2 0.348859 9.471270 3.011573
2 1.281816 9.166104 3.485872
2 0.414219 9.672991 5.337503
2 0.320469 10.584380 5.908038
2 1.047057 10.720994 6.814746
1 0.215340 9.770262 8.080990
2 -0.444097 10.575049 8.719436
2 0.008592 10.956633 10.027170
2 0.629541 9.959936 -0.018280
2 0.091364 10.140959 0.947558
1 0.226050 10.457260 2.347239
2 0.551459 9.819629 4.164449
1 1.075769 10.561576 4.743197
2 1.485612 0.925067 6.633698
2 0.288380 0.197450 7.753645
1 0.826311 0.599346 9.090724
2 1.333622 1.482052 9.403417
2 0.855688 0.262037 10.941251
2 0.495758 1.022149 0.896236
2 0.790831 0.907305 1.962108
2 -0.782179 0.454114 2.624821
2 1.200723 0.857577 4.291467
2 0.062209 0.707620 5.314236
2 0.985898 1.640520 5.786481
2 0.748241 1.979956 6.841864
2 -0.230900 1.136388 7.287217
2 0.857867 1.170200 7.776078
2 -0.272451 1.413575 9.918213
2 0.866116 1.940237 0.579564
2 -0.088002 1.856273 1.161337
2 0.614984 0.455074 2.973196
2 -0.003086 1.734192 3.234151
2 0.494527 1.737430 4.302371
1 1.269561 2.706176 5.646478
1 -0.700929 2.425433 6.766680
2 0.155880 2.003844 7.867240
2 0.319907 3.170046 8.324724
1 0.680561 2.698285 10.578214
2 1.163010 3.217628 0.629143
2 0.649035 2.617909 1.415841
2 0.546060 2.010455 2.226485
2 0.879476 2.514878 3.426767
2 0.373462 2.401643 5.208457
2 0.625653 4.148244 6.973698
2 0.293386 3.219249 7.227714
2 1.065096 4.214001 8.390987
2 0.750713 3.291510 9.393118
2 -0.132293 3.651044 10.541300
1 1.318989 4.188219 0.684167
2 0.781588 3.340316 2.798914
2 0.167765 3.879475 3.568801
2 0.731339 3.853095 4.634328
2 1.033292 3.725975 5.822195
2 1.189612 4.827073 5.982838
1 0.528820 5.198831 6.743926
2 0.186357 4.891099 7.687077
1 -0.250839 4.494195 8.656925
2 -0.033096 4.402618 9.663353
2 0.413513 4.503486 0.270081
1 1.133296 5.001363 2.047719
2 0.087481 5.637543 2.319767
1 0.276826 4.961896 3.439107
2 0.495424 4.998167 4.779968
2 1.348399 5.769506 5.481744
2 1.557489 6.293991 6.772651
2 1.336126 6.267896 7.857070
2 1.389684 6.196826 8.999769
2 1.848291 6.520371 9.985737
2 1.621854 6.028545 0.180447
1 1.645858 6.170336 1.275318
2 1.980105 5.451901 3.136725
2 0.399084 6.478736 4.221916
2 1.349706 5.884292 4.240741
1 1.707895 6.699487 5.648191
2 1.726456 7.528963 6.480214
2 1.051416 7.510945 8.282809
2 1.907533 7.121793 8.913624
1 0.935752 7.243962 9.473440
2 1.659972 7.426043 -0.117879
2 2.090370 7.009462 1.777818
2 1.558356 6.358404 2.548532
2 1.192955 6.799201 3.446104
1 1.342160 6.951994 4.629939
1 2.031461 8.512021 6.354009
2 1.826438 8.759984 7.340470
2 1.805825 8.217550 8.354747
2 1.877362 8.077789 9.505631
1 1.234118 8.382780 10.250120
2 1.682669 7.811178 1.054399
2 1.848539 8.050973 2.176173
2 1.453423 8.075875 3.198091
2 2.069320 7.514770 4.072721
2 1.751398 7.796436 5.247165
2 1.273121 8.838794 5.720098
1 2.288336 9.462377 6.887781
2 1.142425 9.315513 8.586567
2 1.949227 9.138475 9.255241
2 1.746660 8.707104 11.147974
1 1.219174 9.732749 0.812529
2 1.520830 8.856836 1.412728
2 2.342392 8.667062 2.928764
2 2.349352 9.233075 4.027619
2 1.402208 8.446221 4.249417
1 1.646041 9.924513 5.798786
1 1.279844 9.569788 7.243925
2 1.138934 10.351424 8.013068
2 0.594048 10.327715 8.954121
1 1.448815 9.437969 10.471205
2 1.618113 10.387245 0.174732
1 1.698502 9.981961 1.718893
2 1.470629 9.342917 2.528263
2 1.753093 10.118675 3.902635
2 1.635502 9.359044 4.840646
2 2.156056 0.215073 5.964003
1 2.469024 1.199012 6.915455
2 1.730096 0.540020 7.827304
2 1.771520 0.185061 8.886670
2 1.699091 0.583322 10.026107
2 1.581782 1.052067 0.557772
2 1.009046 0.022731 1.232333
1 1.097289 -0.483774 3.058761
2 1.808637 0.626537 3.369794
2 1.186656 0.372821 5.593188
2 1.953122 1.115664 5.301982
1 1.859849 1.527706 7.613791
2 2.021255 1.316386 8.672981
1 2.071379 2.377595 9.299950
2 1.646303 1.879964 10.456445
2 1.931777 2.186242 0.640055
2 1.491413 1.852761 1.674788
2 1.944981 1.287772 2.525445
2 1.019304 1.436863 3.075155
1 2.433594 1.343638 4.299387
1 1.930804 1.818143 6.289398
2 1.123607 3.008471 6.738217
2 1.932336 2.481875 7.258827
1 0.477432 2.127433 9.546838
2 1.872835 3.078440 10.551998
2 2.290913 3.306626 0.973599
2 1.520158 3.405642 1.877361
1 1.407198 2.469318 2.536941
1 2.322305 2.495349 3.498567
2 1.593116 1.915852 3.956762
1 2.002031 3.516939 5.495583
2 1.743468 3.909174 6.744992
1 1.290084 3.435482 7.805667
2 1.367902 2.349839 8.405601
2 2.250664 4.352219 9.937714
2 1.152566 3.941006 -0.420407
2 1.894385 4.367448 1.576670
1 1.876464 3.227455 3.058027
2 1.431984 3.771713 3.856378
2 1.427362 2.861772 4.484301
2 2.301082 4.521001 6.008015
2 1.627955 5.027188 6.940054
2 1.256616 5.099489 7.892880
2 1.304158 4.752742 9.333257
1 2.734939 5.842551 10.355263
2 1.597801 4.950917 -0.097061
2 1.118171 5.261213 0.857522
2 1.174048 4.310183 2.923615
2 1.440810 4.868050 4.015633
2 1.517802 4.459128 5.067270
2 2.259413 5.771283 6.138552
2 2.337294 5.840963 7.335864
2 2.116958 5.445609 8.460842
1 2.045870 5.487430 9.627969
2 2.652469 6.295195 9.269847
1 2.955908 6.977210 -0.150738
2 2.414250 6.570679 0.656910
2 3.340800 6.048253 3.306419
1 2.608959 5.424441 4.031615
2 2.270013 6.307832 4.812409
1 2.649379 7.002089 5.649939
2 2.603957 6.693378 6.678095
2 2.001801 7.232754 7.474756
2 2.699855 6.506248 8.227307
2 2.824516 7.409121 9.505984
2 3.350120 7.231889 0.825079
2 3.054396 6.570056 1.552613
2 2.609410 6.433634 2.508549
2 2.225555 6.364243 3.753897
2 2.914824 7.416736 4.620053
1 3.169252 8.338852 5.454568
1 2.758361 7.719868 6.344142
2 2.807972 7.634406 8.112289
2 2.847205 8.460546 9.021454
2 2.625137 7.935583 11.217391
2 3.084268 8.906811 1.098838
2 2.919333 7.784677 1.687946
2 2.125980 7.273416 2.970975
2 3.033078 7.996764 3.703683
1 2.379793 8.336643 4.687065
2 2.515228 9.139720 5.501642
1 2.849820 8.705333 7.653262
2 3.329381 9.436931 8.674052
2 3.379476 9.454748 9.752728
2 2.456206 8.724531 10.293105
2 2.277948 9.544099 0.824762
2 2.441076 9.253618 2.038727
2 3.324897 8.643284 2.466924
1 3.428038 8.918478 3.629092
2 2.668264 10.046971 4.912810
1 2.722360 10.023274 5.972513
2 1.924820 10.366911 7.339392
2 2.144857 9.570829 8.066300
1 1.305423 10.331718 9.912529
2 2.414423 9.886238 10.277558
2 2.463466 11.174853 0.432270
2 2.459626 10.706973 1.349787
2 2.215183 10.010548 2.934160
1 2.755395 10.255520 3.733518
1 2.026744 11.045100 4.740480
2 3.023320 0.982507 5.901194
2 2.935682 0.223216 6.886119
2 2.489611 -0.656730 9.039254
1 2.899812 0.704462 8.935958
2 2.718214 0.361006 9.893067
2 3.595243 0.915223 0.300889
2 3.528295 0.074528 1.220346
2 1.751245 0.143498 2.486102
2 2.774002 0.486918 3.269096
2 3.025215 0.504505 4.847138
2 2.913463 2.106754 6.012295
1 3.630637 1.622323 6.592392
2 2.895269 0.896517 7.815362
1 2.431153 1.435958 9.716876
2 2.707826 1.508500 10.699391
1 3.049614 1.727017 0.902553
2 2.551381 1.033715 1.449208
1 2.964651 1.370211 2.390734
2 2.930306 1.654731 3.463354
2 3.601452 1.398925 4.369483
2 3.061979 3.195022 5.599765
2 2.097812 2.981589 6.341952
2 3.030894 2.097438 7.381466
2 2.614318 2.206354 8.305812
2 2.671666 2.497227 10.224628
2 2.964813 2.675086 0.441278
1 2.447189 2.457780 1.497675
2 2.703389 2.426704 2.550599
2 2.905272 3.432321 3.119730
1 1.904172 2.157587 5.160234
2 3.266795 4.114269 6.316456
2 2.789791 3.519084 7.110180
2 2.324622 3.322257 8.013163
2 1.962971 3.479741 9.279021
2 2.917658 3.552143 10.490130
1 2.079216 3.924641 0.154699
1 3.575720 3.086277 1.199731
2 2.643712 3.487821 2.020159
1 2.535946 3.261298 4.302250
2 2.949535 4.241571 5.178667
2 3.224196 5.175886 5.914026
2 2.821153 4.883581 6.991228
1 1.987063 4.374392 7.746781
2 2.331015 4.416822 8.793246
1 2.950970 4.642009 10.768179
2 2.279031 5.128524 0.803674
2 2.244775 5.342214 1.871525
2 2.229125 4.390806 2.624568
2 2.446659 4.290691 3.880429
2 2.247957 5.290699 4.988274
2 3.408901 6.317064 5.386366
1 3.480096 6.043502 6.469452
2 3.693433 5.999442 8.451383
2 3.060211 5.154874 9.125065
2 3.737424 6.021877 10.934411
2 4.372694 5.512389 1.530254
2 3.924199 6.232859 2.159958
1 4.446005 6.295692 3.553692
1 3.503434 5.425408 4.546061
2 4.300096 5.762122 5.658938
2 3.803778 7.395352 5.260697
2 3.609886 7.092064 6.328488
1 3.484218 6.609311 7.355042
2 3.628332 7.147664 8.749866
2 3.676779 6.727978 9.834997
2 4.075147 7.310844 0.029022
2 4.343904 6.613593 1.112600
2 3.234385 7.420975 2.842559
2 3.627887 7.150169 3.760635
1 3.857803 6.468659 4.486169
2 3.030570 8.701831 6.612721
2 3.518333 7.760255 7.277248
2 3.993955 8.183097 8.205441
1 4.410278 7.785010 9.497252
2 3.395073 8.114181 10.057281
1 3.710741 8.246039 0.603960
1 4.054755 8.599689 1.755427
2 4.017989 7.529893 1.930884
2 3.977637 8.067914 3.323994
1 4.061013 7.897489 4.405362
1 3.412562 9.495455 5.379865
2 4.196663 9.298945 6.112135
2 3.761591 9.194584 7.290727
2 4.011604 8.781203 9.189426
1 4.328126 8.649732 10.202987
2 3.470057 9.201201 0.046615
2 3.221044 9.834023 1.705273
2 4.329313 9.074799 3.169990
1 4.035768 9.223320 4.305777
2 4.264873 8.693426 5.149921
2 3.686456 10.447045 5.712822
2 3.839106 10.075415 6.715684
2 2.985427 10.029134 7.539282
1 4.240664 9.817566 8.859966
2 3.529794 10.467327 9.206276
2 3.702041 10.547742 -0.415693
1 3.312993 10.099275 0.615706
2 4.203454 10.697517 2.164809
2 3.440829 9.881891 2.915228
1 3.192345 8.944433 4.645986
1 4.182473 0.440246 6.289215
2 3.932705 0.460451 7.476725
2 3.262308 -0.012548 8.234822
1 4.364970 0.274279 8.466783
2 3.819123 0.688453 9.673683
2 4.475387 -0.135557 0.839623
2 3.867964 0.857929 2.629866
2 3.045917 0.184488 2.291376
2 3.622101 -0.159317 4.444042
2 4.127192 0.564039 5.236260
2 3.778378 1.808038 5.529543
2 4.633282 2.051166 6.418477
2 4.025686 1.664667 7.597856
2 3.775733 1.285185 8.610788
2 3.425977 1.858754 9.482559
2 4.076235 1.582783 -0.395037
2 4.425571 0.854905 1.460810
1 4.560226 1.791747 2.455736
1 3.707965 2.323837 2.810046
2 4.227516 1.482101 3.483199
2 3.720945 2.872144 6.340448
1 3.644339 2.894966 7.563763
2 3.259390 3.683715 8.347688
1 2.941041 2.877707 9.261328
2 3.689291 2.884487 10.367179
2 4.352709 1.865555 0.763904
2 3.739877 1.817518 1.737340
2 3.842212 3.329001 2.567418
2 3.472486 2.423880 3.878679
2 2.928660 2.299252 4.785521
2 4.227141 3.700706 5.553194
2 3.691608 4.265539 7.460905
2 4.689429 4.191333 8.208723
2 4.168431 3.164102 9.308381
2 3.903266 3.938492 10.577026
2 3.013744 4.013677 0.807126
2 3.954966 4.217167 2.034467
2 3.423388 4.332057 3.119463
2 3.978494 3.427199 3.725152
1 3.550172 3.362115 4.618239
1 4.003669 5.047257 6.598029
2 3.688423 5.473874 7.428912
2 2.959487 4.919067 8.079360
2 3.244840 4.026638 9.640525
1 4.222212 5.099650 11.110554
2 3.401008 5.488304 1.120556
2 2.961437 4.441267 1.819802
1 3.078079 5.374993 2.384174
2 3.859434 5.163640 3.545159
2 3.504081 4.399316 4.261587
1 5.387528 6.089338 6.106038
2 4.565439 5.933391 6.788887
2 4.761244 5.780375 8.035715
1 4.399425 5.678060 10.178840
2 4.867498 6.813598 9.970856
2 5.433609 5.177049 0.219814
2 5.320117 5.967458 2.420006
2 5.383548 6.245856 3.829567
2 4.644178 5.473770 4.437628
2 5.644672 5.765824 5.112706
1 4.686754 6.747905 5.911661
2 4.630261 7.168677 6.879886
2 4.329096 6.917496 7.947538
2 4.882735 7.113860 8.927359
2 4.973255 7.859204 10.578266
2 5.050988 6.292825 0.157502
2 5.001341 6.829417 1.964859
2 4.570780 7.136483 2.917932
2 4.843634 7.356091 3.905739
2 4.981927 6.597108 4.912712
1 3.950605 8.226237 6.204154
2 5.635067 8.289549 6.686012
2 4.990752 7.883247 7.663778
2 5.038434 8.172665 8.612890
2 5.407962 8.608925 10.027006
2 4.924832 7.546884 0.881371
2 5.045882 8.269597 1.687291
1 5.048329 8.191723 2.883174
2 4.768063 8.539520 4.069156
2 4.881957 7.645956 4.991007
1 5.141126 9.102239 5.622985
2 4.622223 8.696134 6.969141
1 5.836656 8.618460 7.934194
1 5.035326 9.063511 9.141689
2 4.400956 9.870701 9.815594
2 4.784027 8.648073 0.445602
2 4.151391 9.624875 1.124526
2 5.340696 9.184863 2.332234
2 5.473148 9.138890 3.445260
1 5.337980 9.363651 4.556275
2 4.751016 10.490533 5.953581
2 4.128527 10.051753 7.804309
1 4.517124 9.041130 8.051723
1 5.220594 10.217823 8.979333
1 4.677754 10.975640 9.464426
1 4.501070 9.736733 0.175234
1 4.997131 10.180250 1.742157
2 4.184952 9.641641 2.184609
1 4.202569 10.131659 3.738418
2 4.426076 9.852030 5.079157
2 5.448057 0.503090 5.519011
2 4.878205 -0.169070 7.190221
2 5.494628 0.008100 8.176348
1 4.468064 1.711668 9.341644
2 5.001012 0.990724 10.038049
2 4.757039 -0.074704 -0.290067
2 5.444537 0.285892 1.224923
2 5.055901 0.785730 2.744067
2 4.295907 0.339417 3.501732
2 4.791674 -0.058876 4.505978
2 4.887635 1.508549 5.474571
2 4.951083 1.029917 6.757117
1 5.303348 1.488285 7.773141
2 3.578808 2.439837 8.438253
2 4.908403 2.162748 10.058023
2 4.859514 0.975219 0.422258
1 5.324578 1.661900 1.164662
1 5.444199 1.600310 3.768871
2 4.389930 2.178052 4.453665
1 4.643737 1.052119 4.481174
2 4.809457 2.642924 5.415467
2 4.809050 3.148595 6.455491
1 4.729077 2.565132 7.400950
2 4.661212 2.857846 8.403688
2 5.298805 3.192950 9.350021
2 4.285600 2.940761 0.512339
2 4.400220 2.712353 1.787035
2 5.094511 2.948642 2.593857
1 4.576169 2.621562 3.453753
1 5.150549 3.602625 4.623946
2 5.550650 3.724705 5.672183
1 4.529240 3.648566 7.409616
2 5.542112 5.148476 8.386813
2 4.468984 4.270415 9.385821
2 4.730964 3.243219 10.349651
1 4.219944 4.084771 0.948690
2 4.946504 3.838238 1.975363
1 4.565151 4.092807 2.965272
2 4.644309 4.325463 3.907287
2 5.047227 4.646475 4.986825
2 5.152146 5.100504 6.049291
1 4.747392 4.273301 6.354052
2 4.787807 4.795986 7.377007
2 4.023456 5.029253 8.586854
2 3.633807 4.939598 10.007482
2 4.847623 4.460134 -0.334233
1 5.040259 4.690055 1.127808
2 4.337866 5.171455 2.545606
2 5.314565 5.236764 3.280348
2 4.044880 4.707638 5.380370
