1000
Lattice="13.57208808297453 0.0 0.0 0.0 13.57208808297453 0.0 0.0 0.0 13.57208808297453" Properties=:species:S:1:pos:R:3 Time=1000
1 8.100698 7.125555 9.645109
2 5.314584 6.869927 7.620118
1 7.448200 7.883675 10.201867
2 6.747276 7.690865 13.099683
1 6.952718 5.420522 12.765634
1 6.599585 6.856902 0.781243
2 6.860488 7.385165 2.418502
2 6.962107 6.650916 3.821666
1 9.127453 8.366582 5.159405
1 7.641037 6.260006 5.012805
1 7.817048 10.257199 8.366149
1 7.415019 8.658514 9.229969
1 6.253887 8.184234 9.632614
2 6.592978 10.070021 11.256292
1 8.055896 7.865158 12.630729
1 8.045063 8.727593 -1.475103
1 6.437825 9.171725 2.462176
1 6.619891 8.268922 4.030515
1 9.123788 9.024313 4.396279
2 6.535649 10.595287 6.469971
1 5.169757 9.223452 7.899199
2 7.521616 10.876835 9.223533
1 7.208210 9.211433 10.293691
1 7.698269 9.825965 11.284947
1 6.697555 8.563071 12.092716
1 7.090921 11.607169 -1.629213
2 7.154573 9.951136 1.941021
1 8.078559 12.475818 3.715317
1 6.645625 9.631632 3.711914
1 8.391431 11.362967 6.048251
1 8.711123 12.695046 6.883859
1 7.345867 11.581659 8.159168
1 7.344891 10.270724 10.319796
1 7.104677 11.333666 10.662195
2 8.541913 10.925366 13.087087
1 6.739282 12.668152 0.215208
1 5.929205 11.013990 2.765585
2 9.191047 11.437457 4.968193
1 6.338926 10.019515 4.687489
1 7.441322 10.552076 5.069979
1 9.763472 14.501169 8.209670
1 5.570383 12.133474 10.067881
2 7.375624 14.396655 9.011183
1 6.747581 15.296559 12.530196
1 6.725711 11.182774 13.276325
1 6.872318 12.603527 -0.853724
1 7.235838 14.808303 0.041268
1 8.594699 13.254998 3.659834
1 7.301628 12.644329 5.464280
1 6.658189 12.772558 6.249778
2 7.372972 0.796008 6.846549
1 7.728788 1.202072 10.154427
1 8.325349 0.172178 8.424158
2 6.950564 0.843877 10.852983
1 8.335713 0.816245 13.607328
1 7.597167 -1.011130 -1.900110
1 7.758294 -0.466798 2.741890
1 7.554860 -0.327604 1.221150
1 8.146967 0.304933 5.132414
1 5.539162 -0.595417 6.564271
2 7.929296 2.494685 7.085572
1 7.103918 2.748642 9.110605
1 6.431701 3.412937 10.127051
1 7.282496 2.567718 13.588436
1 5.820919 1.430639 13.359787
1 7.828334 1.842058 -0.770553
1 8.033905 2.768398 1.395932
2 6.732719 0.195215 2.769040
1 8.972130 1.172405 4.498154
2 6.584064 2.017404 6.369430
2 7.675950 3.479519 6.517114
1 5.938839 4.051282 9.207785
1 6.970651 4.094080 10.594044
1 5.271388 5.450875 14.575760
1 9.500090 1.417508 12.778772
2 6.999046 4.063294 0.528855
1 7.075721 5.231023 0.276965
1 7.160010 3.394142 3.715087
1 7.457609 2.790246 5.412975
1 7.260929 4.375314 5.828962
1 8.024414 3.635519 7.635778
2 7.224701 4.040744 9.459071
1 6.996695 5.235947 10.018425
2 6.577264 5.133801 11.035874
2 7.514492 5.314154 11.717431
1 7.427555 6.142715 0.989940
1 6.412781 5.528505 2.321002
1 6.050173 4.490712 3.474049
1 7.032889 5.404208 4.666657
1 9.382229 5.286828 4.884814
1 7.476115 4.336146 7.034265
1 8.505002 5.255180 8.596405
2 8.209822 5.959234 9.776862
1 6.718497 7.177754 10.700659
2 8.258725 5.406011 12.748763
1 8.233578 6.177391 0.023900
2 8.710748 6.111664 2.453411
1 4.931128 7.201283 4.539652
2 6.098902 6.582161 2.924611
2 7.781269 8.245801 4.850500
2 7.521436 6.148795 7.884468
1 8.297264 8.169152 9.025117
1 8.900675 6.604565 10.312229
1 8.186560 7.257480 11.552976
1 8.826705 6.931786 12.301777
2 7.916784 7.863927 0.410119
1 7.563928 7.272723 1.299736
2 7.680983 5.539524 2.254795
1 9.322291 4.218419 4.586041
1 6.573486 7.385052 6.792191
1 9.412871 7.841210 7.217100
1 8.957628 9.266851 9.092108
1 7.824600 8.148426 11.279135
1 11.669598 8.546293 11.118225
1 9.062786 7.879588 11.568171
1 10.177876 7.247431 0.974867
1 7.897010 7.189508 2.565160
2 8.302227 9.130711 2.429481
1 9.463247 10.027573 4.389802
1 8.281274 9.992353 6.157421
1 9.469065 10.745236 7.116992
1 8.313875 9.958262 10.454528
2 9.616455 9.239459 11.171013
1 8.494614 9.811675 12.019734
2 10.150588 9.945142 12.677747
1 8.687266 9.691928 -0.150934
1 8.749716 11.243971 1.651752
2 8.389824 9.633915 3.711243
1 9.940652 9.093677 5.934717
1 9.747557 10.280300 6.076945
1 9.671793 9.974288 7.678904
2 7.959224 11.144513 7.126952
1 8.886930 10.178921 9.417672
2 8.537459 12.033687 11.325302
1 8.105794 12.739571 12.785858
1 8.040483 12.453584 0.545924
1 7.661515 11.619710 1.391610
1 8.302019 11.380448 3.610018
2 10.747301 11.178291 5.466538
2 10.346450 13.164760 6.583644
1 10.092989 12.181380 6.951176
1 8.741547 13.633726 10.252228
2 7.124686 13.574610 9.763318
1 7.436121 13.691628 11.731452
2 9.679857 12.750351 12.250010
2 9.051000 13.444543 0.459094
1 10.226484 12.677205 1.800564
2 9.660470 12.021155 2.368821
1 7.880338 12.418742 6.203393
1 8.549932 14.016608 6.024717
2 9.828801 1.312845 6.951675
1 8.606488 1.455833 8.004596
1 8.758985 0.556689 9.275768
1 9.615388 1.574431 10.393413
1 8.465694 0.192447 12.618498
1 8.995224 2.084754 1.409357
1 9.245111 -0.109263 2.517674
1 10.104998 1.694065 2.842061
1 8.849227 -1.130836 4.537560
2 7.454549 0.927143 5.667521
1 9.722194 2.039477 6.112340
1 6.716059 2.064672 10.503250
1 9.290458 3.210791 9.670016
1 8.593955 0.993746 11.152212
1 8.740732 1.900784 12.165100
1 8.904804 3.565212 0.884795
1 9.316332 2.477974 2.320312
2 9.598030 2.749074 3.310192
2 10.634300 1.506206 4.085904
2 10.062685 0.920789 5.917846
1 9.730187 2.474559 7.075396
1 9.118370 2.341482 8.432431
2 8.191451 2.900562 9.351674
1 7.353044 2.945886 10.326066
1 7.330283 3.416218 12.725860
1 7.989657 4.788935 0.071009
1 9.548818 4.526473 1.711953
1 8.768567 3.245983 3.643495
1 8.782361 4.710053 3.777406
2 7.223724 5.514036 5.689013
1 8.093421 2.564656 8.220340
2 8.468911 4.858788 9.702170
2 9.433221 5.598430 10.608304
1 8.460156 4.081437 10.786874
1 8.148128 5.033794 10.834275
1 10.213572 6.026129 0.977134
1 7.685068 5.888331 3.313408
1 7.232429 4.700247 1.552805
1 8.908265 5.771706 3.961753
1 10.026423 3.295215 6.500966
1 9.314912 5.108885 6.000475
2 9.513678 7.334520 9.652694
1 8.701708 7.934071 10.010460
1 7.941449 6.088180 10.863549
1 9.181909 5.791448 13.873016
1 8.517501 4.920229 2.061321
2 8.486876 5.838875 1.101665
1 8.706809 4.059237 2.871192
2 8.094018 6.797037 3.994154
1 7.648847 7.446424 5.954778
1 10.013306 5.995651 6.563014
2 9.501630 8.284524 9.102021
2 9.726136 8.261008 10.529109
1 9.736587 6.417624 12.331648
2 10.559519 8.291958 11.574416
2 12.174415 9.285550 0.946202
2 12.273525 5.341976 2.214628
1 10.681075 7.481029 2.221143
2 9.499639 7.639387 6.145294
1 11.274361 9.026227 6.680782
1 9.678538 9.032934 6.946786
1 11.429514 7.840876 8.501874
1 8.354195 8.923241 10.000168
1 8.588320 8.948751 10.942508
1 11.580685 7.495299 11.441428
1 9.474885 9.370288 0.619246
1 8.116299 10.578645 4.041855
1 10.732269 10.925312 3.276584
2 10.517725 9.401803 5.112158
1 8.000425 8.685977 6.819473
1 10.632686 12.152161 10.279061
1 9.322674 9.374931 10.114395
1 11.787758 9.972030 10.849632
1 11.196216 9.179341 12.491529
1 10.766221 10.408644 13.651433
1 9.970884 10.830316 1.715511
1 10.105086 9.206319 2.129284
1 9.965986 11.084257 4.290924
1 8.301110 9.948206 4.855101
1 11.306909 10.716317 4.628046
1 10.805772 11.440150 8.614667
1 11.562661 12.364697 8.632644
1 10.398449 10.726010 10.210832
1 9.697993 12.262796 10.667648
1 9.514380 11.274578 11.411739
1 9.686238 11.138477 -0.277100
2 8.768331 12.457485 1.776477
1 9.001171 12.290410 3.143463
1 9.677200 14.095594 3.852279
1 12.239869 11.738022 4.599472
1 11.253593 14.028390 8.638649
1 9.423317 14.898568 9.207728
1 10.366396 13.792679 10.738196
1 11.332431 12.904745 10.850789
1 9.601314 14.355044 13.544402
1 9.991183 12.003617 0.029014
1 9.758979 11.723874 3.435688
1 11.412476 11.995972 3.878686
1 10.212561 12.832066 3.549842
1 13.250814 12.117815 7.348708
1 8.485243 1.333231 7.092798
2 11.021390 1.397420 10.059537
1 11.570602 2.281172 11.146552
1 11.072507 0.672993 11.836787
2 9.727896 -1.535445 14.666862
1 9.869068 1.091406 1.212724
2 10.273245 -0.091665 2.748260
1 10.360774 0.556151 4.748959
1 10.118643 -1.379247 5.943282
2 10.873228 2.933427 5.623091
1 9.674420 3.782451 8.804744
1 10.312143 1.762191 7.808587
1 9.343781 2.842354 12.160623
1 9.514577 0.863092 11.523223
1 10.175287 2.273063 12.404104
1 11.795403 2.004725 -0.943465
1 11.030478 1.555480 1.993116
1 12.380040 0.767916 4.197645
1 9.851269 1.759267 4.937089
2 8.596173 2.500852 6.197796
1 11.019113 2.121578 7.065606
1 10.358484 2.728661 8.724257
2 9.629250 4.210873 10.711859
2 10.484021 5.375626 11.676642
2 9.296827 2.966456 13.354412
1 10.647492 4.507327 1.586500
1 9.452890 3.515024 2.185617
1 11.914564 1.714572 3.910888
1 10.354693 2.560633 4.370965
1 9.835179 3.016140 5.494480
1 10.310857 4.998071 6.405965
1 11.509415 6.062739 8.924551
1 10.537867 4.654232 9.565736
1 11.344452 5.280162 11.055226
1 8.648286 6.010489 11.786689
1 10.486989 6.092809 -0.465928
2 9.299620 4.990565 2.676589
1 10.626589 4.273987 3.444462
1 10.041587 4.367891 5.221268
1 8.750637 3.161759 6.964680
1 11.163434 5.851255 6.846459
1 9.259740 6.000248 8.832739
1 11.317990 6.044022 10.106059
1 10.125562 6.255444 9.679956
1 7.827050 6.308703 12.238770
2 8.986377 7.830281 0.959094
1 10.969072 5.987104 3.883438
1 9.653821 4.241427 3.367856
1 11.767302 4.985580 3.110864
1 8.490185 5.794891 6.502967
1 11.440279 6.330146 7.975629
1 11.354432 7.532405 10.210490
1 11.314561 6.463750 11.208389
1 12.861038 10.453056 12.001069
1 10.658424 7.277777 12.853440
1 11.785567 4.551152 1.479931
1 9.902744 8.583181 3.083675
1 9.660336 8.047673 4.140357
1 11.108603 7.048713 4.383050
2 11.738488 7.157872 5.450459
1 10.529462 8.334380 7.519103
1 11.419545 8.012384 6.483331
1 10.477968 7.848924 9.591758
1 12.696369 7.746843 10.566964
1 13.035337 9.624341 11.242772
2 13.229173 10.082083 1.244675
1 11.894204 9.669333 2.022102
1 11.405178 7.266266 3.205997
1 11.091329 8.835017 4.167026
1 12.924569 7.520379 5.939731
2 13.657145 9.997491 8.126721
1 11.299245 8.634054 8.979711
1 11.266737 8.525992 10.037885
1 11.747405 10.996562 12.783614
1 10.496703 11.446003 12.802951
1 12.812138 11.181088 1.595094
1 13.061414 9.693963 2.203163
1 12.201701 10.010791 3.156073
1 11.336212 8.194358 2.326251
1 10.656220 10.782829 6.478378
2 12.792775 13.523861 6.186069
1 14.393468 11.615246 6.877343
1 11.202271 11.959814 12.004238
1 12.021740 9.865951 13.090346
1 8.973075 11.505771 12.210045
1 11.512331 11.383500 1.349680
1 10.772077 11.713060 2.140524
1 11.786866 10.805122 2.289062
1 12.885263 11.262346 5.445115
2 12.160188 11.873002 7.504046
2 12.401184 12.158384 6.208421
1 10.640319 14.977352 8.714410
1 12.322903 12.949340 10.771069
2 11.725529 12.191667 9.832858
1 10.296820 13.600985 14.609338
1 11.341824 11.805289 0.206782
2 11.321350 12.602070 1.674097
1 12.411014 15.972893 3.067120
1 10.935070 13.373852 5.535179
1 13.218470 13.605827 4.686195
1 10.752139 1.970399 5.918591
2 11.588036 2.059541 8.697769
1 13.243280 -1.225625 9.520433
2 10.138361 0.351230 9.588539
1 14.631612 -1.167668 12.842788
1 11.787889 -0.362595 0.842645
1 11.319027 0.959142 1.199644
1 10.055622 0.727220 2.073785
1 11.366040 1.995268 5.049910
1 9.491466 -0.399180 5.654935
1 11.433590 3.101731 6.807327
1 11.164837 0.748139 6.431836
2 12.058714 1.221125 9.504076
1 11.722626 1.529626 11.811518
1 10.234679 0.109227 11.930364
1 13.137101 0.925402 0.185772
1 12.518398 1.256905 2.714416
1 12.904739 2.400859 4.025302
1 12.500324 2.614205 4.995039
1 12.095539 3.449056 5.664119
1 12.202415 2.423709 7.412615
2 11.641527 2.501978 9.863594
1 10.236857 2.289158 11.294820
2 12.559338 1.905281 10.584578
1 12.358887 1.970119 14.027714
1 12.404682 5.452572 0.848673
2 10.820721 2.608981 3.338525
1 10.400349 3.973364 2.518221
1 11.276998 3.891009 4.668648
1 12.192153 3.743072 6.603243
1 13.409975 5.499239 6.844812
1 11.413415 5.071921 7.951876
1 11.476673 3.943010 10.255276
2 11.791897 4.432459 12.262578
1 10.848339 6.421707 12.170117
1 11.539031 6.262817 0.506654
1 11.266960 4.442537 2.446586
1 12.818499 3.839633 3.202935
1 10.395591 5.534313 5.591681
1 9.426845 3.347317 7.721137
2 12.372052 5.979083 7.486053
2 12.321405 7.227138 8.362845
2 12.058433 7.241815 9.373228
1 11.571664 5.664797 13.298904
1 13.991546 9.378195 14.231964
1 9.861005 5.499683 3.531828
2 12.577877 6.284181 2.575642
1 10.713069 6.471617 2.747573
1 10.057802 6.026673 4.564728
1 11.743027 5.224902 5.534393
1 11.832662 6.844609 7.062312
2 11.746630 9.525564 8.559023
1 13.438667 7.044780 11.281436
1 11.637514 6.966241 12.947089
1 12.301563 6.976872 14.654419
1 10.497895 8.417602 1.368575
2 12.673958 7.733484 1.974678
1 14.101429 7.850532 3.620163
1 12.075307 8.384257 5.531283
2 13.010941 6.443959 6.625574
2 13.296740 7.571773 7.049493
1 12.732814 8.276341 9.554058
2 13.703312 8.299437 10.631164
2 14.023233 7.711245 12.556416
1 11.687125 10.349586 14.525332
1 12.571214 8.238746 0.520900
1 12.661887 8.359832 3.006275
1 12.580630 6.940451 3.307669
1 13.662128 8.728612 4.739048
1 13.400826 9.686946 6.684487
1 12.827563 9.399613 7.710288
1 14.047811 10.541993 9.606595
2 13.941256 11.037002 10.917341
2 11.877774 10.942196 11.496885
2 12.909122 11.181611 11.053924
2 13.190461 10.196356 3.509333
2 12.750379 12.542724 0.510296
2 13.802838 9.762109 4.742741
1 12.965037 9.970104 5.528134
1 12.684447 10.402313 6.388722
1 14.301329 12.362796 7.805889
1 13.243965 11.036017 7.324536
1 11.272617 10.097233 9.769126
2 12.281053 12.140762 11.806834
1 13.138442 11.622174 12.290028
1 12.207523 12.166469 1.608227
1 14.539300 9.615075 1.618315
1 12.933633 12.607499 3.832560
1 13.402069 11.568128 6.326445
2 14.225732 9.346692 7.176788
2 14.340517 14.876440 7.086644
1 13.188067 14.335838 9.256279
1 13.219942 14.626760 10.410652
1 11.718506 13.105503 11.799378
1 11.904399 12.735092 13.285566
2 11.246165 14.004822 -0.549536
1 13.589745 15.528836 1.611499
1 13.283987 11.624514 3.826164
1 11.975270 13.718987 5.039810
2 13.088795 12.611824 4.902710
1 12.988877 1.584331 8.206857
1 13.135953 1.089884 5.754224
1 12.027278 0.749249 11.200330
1 12.194598 0.097780 12.484245
2 12.655094 1.418915 12.814762
1 14.654639 2.004491 1.368433
1 13.617485 0.081556 1.386840
1 13.139441 0.307444 3.473154
1 12.530136 2.798343 6.419296
2 12.041449 1.233963 5.334523
1 13.766929 2.457097 6.723599
1 13.111484 1.707581 6.680148
2 11.477472 0.342496 10.382600
1 14.955945 2.408104 11.315125
2 13.755160 3.557980 12.706852
1 13.649881 1.558116 -2.132801
2 13.174597 3.158072 1.902798
1 13.320577 2.264522 2.557097
2 11.597527 2.895512 4.219690
2 13.858461 4.744411 7.927868
1 12.013105 3.488826 8.131350
1 12.616420 4.964548 8.330021
1 13.957749 2.701184 11.002891
1 12.475153 2.874623 11.570151
2 13.143133 2.533462 12.638887
1 13.727820 3.191916 3.095885
1 12.470981 4.145216 2.100538
1 13.982163 4.157426 4.676584
1 14.016988 3.161822 6.076790
1 12.598459 4.600309 5.845322
1 11.189693 3.673445 8.993008
1 14.655070 4.516621 10.478715
1 13.018284 3.707631 11.369632
1 11.706453 5.235830 9.844930
1 12.923001 5.629180 13.151052
1 12.787203 4.236094 -0.607154
1 12.686503 4.908058 3.219292
1 13.190159 5.955549 3.649041
2 12.272073 4.887529 4.519734
1 14.179224 6.479404 7.903782
1 12.817412 6.781058 4.608964
1 12.625722 5.820066 9.552941
1 12.382068 6.463087 11.092933
1 12.201628 6.369999 12.190515
2 13.257464 6.897596 13.009422
1 13.316491 3.909019 0.770172
1 14.489226 6.929591 1.266437
1 13.566625 7.472136 2.797732
1 14.147759 4.735372 6.082780
2 12.880969 5.705753 5.629030
1 1.342352 9.065974 8.188168
1 -0.390677 6.794175 7.838680
1 0.021676 7.231225 8.874791
1 0.378537 6.854998 10.214362
1 0.755523 6.774413 12.226418
1 0.358811 7.672868 0.211603
1 0.363635 7.982872 1.233807
2 0.769709 7.825619 2.157730
1 -0.556510 7.914839 4.002848
2 1.925356 9.341242 6.810611
1 0.478860 9.693633 9.188956
2 2.371382 8.910717 10.572278
2 0.950633 8.972762 9.969674
1 -0.512968 8.781136 12.586007
1 2.724112 6.350851 10.904996
2 1.697679 7.696178 -0.933921
1 -1.246976 8.677425 1.899359
1 1.898603 8.586217 3.406464
1 -1.709832 8.056847 3.791590
2 -0.028661 8.403114 6.289195
1 -0.364224 7.913564 8.153035
1 1.535330 10.015181 8.618059
2 1.456798 9.814912 10.422578
1 1.221375 9.691001 11.636468
1 1.005291 10.277744 13.363304
1 1.677697 10.631889 0.333988
1 1.864541 8.930046 2.074686
1 1.690572 11.926769 0.309044
1 0.384710 11.022633 5.135681
1 0.423029 9.486505 5.838756
1 1.678121 11.858552 7.914390
2 0.910508 10.447680 7.609647
1 -0.295088 11.122444 8.432695
2 -0.092280 12.118610 11.144252
1 0.655238 11.320494 13.554943
1 -1.210672 11.252014 0.620230
2 1.773244 12.235201 2.034769
2 1.454082 10.505800 3.841291
1 2.663751 11.306118 2.961448
1 1.759758 12.301421 5.149049
2 -0.040562 14.144077 6.729541
1 0.914767 12.156190 8.911786
1 -0.108446 13.023419 10.397557
1 -0.540223 12.905874 12.215060
2 0.336056 14.231306 13.182758
1 0.024025 13.217233 0.434438
1 0.373816 14.874342 2.472585
2 1.007744 13.975991 5.211176
1 0.550495 12.057545 5.242045
2 1.394733 12.248633 6.167994
1 2.100229 1.193952 8.152916
1 -0.683482 0.058931 11.202729
2 0.536804 0.348546 9.678918
1 1.986736 2.094577 12.932848
1 3.057630 -0.493124 14.122089
1 1.250229 0.522791 1.776065
1 0.468178 0.877447 0.725616
2 0.066733 1.698886 3.535524
2 3.480335 -0.113822 4.277292
1 -0.587375 1.263357 4.842352
2 1.305392 2.307584 8.112080
1 0.437392 3.677340 8.046890
1 0.225179 0.569580 8.367243
1 -0.444638 1.798774 9.582355
2 0.450981 1.734206 12.536757
1 2.121446 2.235171 1.493752
1 0.712266 2.707164 2.046179
1 1.579378 1.520882 2.166359
1 0.201398 2.203840 4.600585
2 -0.239739 2.221067 5.808931
1 1.290194 3.496743 6.911961
2 -1.081413 2.821254 9.224435
1 0.903542 3.150460 9.783120
1 0.757233 3.619169 11.151535
1 0.172058 4.682213 12.741108
2 1.218687 5.131087 -0.124220
1 1.163653 3.533089 -0.142814
1 1.305762 3.731771 2.223578
1 1.106739 3.113929 4.430370
2 3.007880 5.013148 4.069662
1 0.819374 6.070166 8.728605
1 -1.490017 4.479339 9.129594
1 1.379173 6.454529 9.583196
1 1.709171 3.091861 12.484977
1 0.602046 6.000440 13.020051
1 0.880456 6.815512 -0.008120
2 1.049732 4.359377 1.502292
1 0.068260 4.626478 3.503183
1 -0.629240 3.829657 4.738330
2 1.781399 4.450118 5.995793
1 1.903008 6.055698 7.640178
2 1.028247 7.682078 7.464607
1 0.312140 9.411434 10.679093
1 -0.141644 6.064450 10.585611
1 -0.694559 5.653485 11.445510
2 -0.309784 5.969761 1.371759
1 0.922522 5.865357 2.013779
1 -0.006791 6.378418 2.763393
2 0.229891 6.825214 3.873698
2 0.915984 7.217324 4.763263
1 0.181974 8.751648 7.971868
1 2.848565 6.981987 7.484687
1 1.966996 7.033205 10.183527
1 3.129333 8.023121 11.391941
2 1.020608 7.177726 11.326020
1 1.303737 8.170599 0.678188
1 2.100918 6.096853 1.933590
1 2.320258 7.647488 4.517011
1 1.077242 8.294112 6.170595
2 1.402148 5.273673 6.932319
2 2.661659 9.104213 8.021477
1 2.355347 8.244958 8.625897
1 3.446256 8.696853 10.494418
2 4.457301 11.150747 11.274104
1 -0.727930 9.664346 10.100945
2 -0.089435 7.051792 1.779938
1 1.605822 7.070989 2.719382
2 2.618227 7.818389 3.092991
1 1.092011 9.204223 3.980278
1 1.770900 7.565484 6.258408
1 2.772918 11.008573 8.796679
1 1.576874 11.169491 8.699621
2 1.796301 10.504743 9.519929
1 1.072172 9.446706 12.825754
2 2.969560 10.054771 15.538302
2 1.714773 9.569407 0.387539
1 2.040761 10.268746 2.561508
1 3.039157 10.660631 5.246295
1 5.877593 10.807628 5.653951
2 1.003719 10.199670 6.426574
1 2.652390 10.277883 7.362429
1 2.241517 11.728160 9.321596
2 1.258950 11.657540 9.912148
1 2.388813 10.287292 11.627192
1 2.028833 12.974409 13.125061
1 0.282317 12.364171 0.805237
1 3.548757 12.128923 1.889571
1 1.514548 11.338938 2.841626
1 4.175994 9.645790 2.922800
1 0.095548 10.522079 5.999000
1 2.110245 12.947397 9.214454
2 -0.639580 13.490255 7.960251
1 0.724816 15.642312 9.316211
1 1.741815 13.497439 10.432190
1 2.636349 11.245695 12.356624
1 0.918252 13.334519 -0.002888
1 0.931271 13.468987 4.165904
1 2.383164 12.309074 2.953679
2 1.030128 13.761171 6.408350
1 2.070423 14.545629 5.551202
1 1.679355 -0.687418 7.682614
1 2.967806 1.736452 8.683253
2 1.261707 1.268214 11.639294
1 -0.116092 0.600850 12.164138
1 1.232367 -0.796412 9.634491
2 0.429681 2.576525 -0.290553
1 0.179478 -0.954078 2.177474
2 1.972981 -0.495569 3.702370
2 1.908651 2.174627 3.120401
1 2.281924 -0.251080 5.028349
1 0.528327 1.400465 5.317461
1 2.360898 1.787783 9.496910
2 3.354518 1.790068 10.230814
1 2.226669 4.418714 13.134149
1 2.748698 3.427737 13.174007
1 1.522357 3.083053 1.128978
1 1.282642 1.122136 3.215653
2 1.369687 3.236603 3.150336
2 1.264804 1.104547 4.185649
1 2.978176 2.495550 5.974270
1 2.216779 0.564783 7.076721
1 1.992857 3.007095 9.594773
2 3.137229 4.812067 9.198518
1 2.723848 3.817252 10.960798
1 2.762882 3.412249 14.490613
2 4.842375 2.903993 -0.390042
1 4.385791 1.752917 3.208128
1 2.029502 2.894777 2.375597
1 3.163004 2.141659 4.478749
1 1.756315 2.475373 6.236003
1 2.845326 4.519164 5.998724
1 1.042662 4.606323 8.923774
1 0.050467 3.665597 9.432689
2 -0.155869 2.708435 10.073783
1 1.165831 5.264456 12.305705
1 1.770907 4.212323 0.740508
2 1.136227 5.869360 0.798185
2 1.229616 3.973086 3.876031
2 1.916098 5.012454 3.465389
1 2.431023 3.736568 6.644623
1 0.474150 6.303507 6.990637
1 2.017412 5.635845 8.861814
1 1.035587 7.340164 9.653332
1 2.249554 4.930797 10.526123
1 2.638442 8.555087 13.538649
2 2.734768 6.246744 1.110992
1 2.659323 7.225885 1.731685
1 2.795370 6.646916 3.497629
1 1.433563 6.470080 3.654515
1 1.508573 5.157982 8.110369
2 2.322982 6.675861 8.530648
1 1.175349 7.301457 8.485450
2 3.409977 6.794967 10.252361
1 2.914660 7.548860 12.589407
2 5.315427 9.636363 11.664189
2 2.529353 8.142480 1.304979
2 4.877435 8.438097 1.681933
1 3.888903 6.562746 2.998414
1 3.285083 6.937259 4.546732
1 3.586688 9.415807 4.063465
2 4.412649 9.621393 8.563873
2 3.323874 9.732415 8.770386
1 3.005568 9.763236 10.447637
1 3.326541 7.414479 9.279103
2 1.392820 8.589407 11.792227
1 4.484899 9.077859 0.449524
1 3.942627 9.545312 1.597724
2 3.892140 8.278606 3.029029
1 2.863034 9.801834 3.149770
1 2.170071 8.495625 7.471909
2 3.704917 11.240489 6.772652
1 3.724687 9.142864 7.805274
1 3.441820 11.784964 10.464750
1 3.351562 12.656725 10.869583
1 0.990871 11.443159 12.510678
2 4.087852 10.889682 1.682774
1 6.319308 10.685342 1.802471
1 3.075642 8.808336 5.500962
1 4.274370 10.762454 3.884369
2 3.326349 9.519301 6.405270
2 4.743745 10.976146 6.008709
1 2.076887 9.149697 9.292783
1 3.174976 11.138043 9.886981
1 4.963903 11.523358 8.378455
1 3.006919 9.890212 13.853582
1 4.323935 12.762357 0.162472
2 4.167176 12.799334 2.756552
1 3.620728 12.002711 0.710611
1 4.948723 8.518029 3.498006
1 4.131048 11.880464 5.460323
2 3.761799 13.126888 6.986883
1 3.049770 12.806866 9.784432
1 1.513054 10.969215 11.110425
2 3.152327 14.456459 10.858927
1 3.142457 12.769492 12.975687
1 2.948592 11.729487 -0.285710
1 4.666889 13.853472 2.237947
1 3.922423 12.158118 4.265384
1 2.760109 12.401237 3.896139
1 3.121296 13.238520 5.838390
1 2.209703 0.543281 9.595229
1 3.070632 0.621524 8.289222
1 4.635025 1.466710 10.115156
2 4.456962 -1.664705 10.230454
1 3.040244 -0.036272 11.585922
1 3.901844 0.087734 -2.481831
1 3.330461 1.143377 1.981548
1 3.515623 1.021662 4.312750
1 2.829437 1.196061 4.923808
1 3.079133 -1.645565 5.377756
2 4.137432 1.391262 7.174343
1 4.280744 3.535010 7.148045
1 3.027840 2.689067 10.734605
1 4.374364 3.351576 10.865955
1 2.834702 4.491967 14.481554
1 3.107276 0.510862 1.121099
1 3.891369 1.420696 0.844282
1 3.055146 1.991381 3.486638
1 2.710453 3.168545 4.024345
1 3.202927 0.428925 6.606402
1 5.178217 4.669205 7.192543
1 1.796595 3.307716 7.961020
1 5.226223 4.595907 10.560494
2 3.482493 2.243473 11.578802
1 4.463409 2.020272 13.836277
2 3.709851 3.199069 1.091925
2 2.497827 4.018811 2.085560
1 3.249940 4.507041 2.899516
2 4.221844 4.014522 4.502387
1 4.965419 2.597913 7.123452
1 3.718765 6.539768 7.159751
1 2.729913 5.890590 9.944685
2 4.838719 6.665600 9.308495
1 2.074873 4.931794 9.488092
2 3.527019 2.723248 13.744096
2 3.253460 4.294389 -0.304943
1 3.804557 4.150502 1.492913
1 3.762826 5.301239 1.111274
2 3.774478 3.536712 3.531045
1 3.500567 3.671210 6.478914
1 4.555092 5.974852 8.286202
1 3.894381 6.934493 8.293704
1 2.327943 4.170385 8.169567
2 3.979794 4.399322 11.529347
1 4.877783 6.368189 13.934374
1 2.115096 6.979592 0.814569
1 3.280496 7.653147 0.481599
2 2.858214 5.147857 1.778125
1 3.034325 6.133621 6.452314
2 2.438064 5.198118 6.680520
2 4.989937 8.542621 6.911289
1 3.588391 8.055032 7.607338
1 4.324029 8.286338 11.143301
1 4.339627 5.500137 11.009343
1 5.044224 7.126879 11.909881
1 4.406679 7.597094 0.524096
1 5.363836 7.360985 2.075616
1 3.144197 8.757059 2.604690
1 4.069823 6.395610 5.883431
1 4.628452 7.782505 7.622851
1 5.605332 9.421085 4.247915
1 4.993620 8.378616 8.680670
2 4.159944 8.615849 9.449983
1 3.869255 10.359291 12.249349
1 4.941114 8.118465 13.247031
1 2.435619 9.271701 1.182946
1 5.121952 10.221975 2.591437
1 3.348938 8.231664 4.365874
2 4.632732 10.047977 4.651860
2 4.612448 9.826173 6.070278
2 4.165084 9.824332 7.105578
2 4.435816 11.132223 9.340996
2 4.871560 10.050117 9.663665
1 4.082285 10.715419 10.343813
1 6.932444 10.716625 14.325474
1 6.352007 10.506664 -1.086240
1 5.760420 8.287248 3.071509
1 4.761414 11.138005 2.990125
1 5.780993 11.122345 4.365739
1 7.375491 9.579035 5.950517
2 5.990515 11.963965 6.102467
1 5.419095 10.498403 8.084580
1 4.336841 12.229063 11.377042
2 5.754730 11.532299 10.824430
1 4.894228 11.094642 13.349489
2 6.050966 9.159977 0.676759
2 4.552317 12.358219 1.229414
1 4.469002 11.096578 4.795645
1 5.577232 12.788611 4.071594
1 4.911828 12.724863 7.468418
2 4.661891 12.722465 6.050841
2 3.705589 12.091140 8.434483
1 2.284737 12.312525 10.392467
1 4.391462 13.500854 13.001582
2 5.511558 12.608184 12.603815
1 5.184739 11.870064 1.959082
1 3.206346 13.284097 1.887713
2 4.305275 13.565617 0.900819
2 4.437680 12.842762 4.922817
1 5.122897 11.908622 5.615713
1 5.020816 0.314703 6.168882
1 6.158840 0.535779 8.711590
1 5.134161 0.105055 9.031744
1 5.739242 0.083341 11.194545
1 5.792457 0.619941 12.448674
1 4.738185 1.353307 -1.341064
1 4.469943 -0.606200 3.872609
1 5.536704 -0.044780 2.959964
1 4.586145 2.798099 5.172480
1 5.798496 -0.616252 5.187305
1 5.834329 2.095036 7.269418
1 6.273427 2.511846 8.358139
2 4.691770 1.274447 8.708141
1 5.393556 3.114254 10.439647
1 4.459181 2.115254 10.961464
1 5.517168 2.645388 1.983872
1 3.094052 2.322313 2.156160
1 4.556300 0.960071 4.020900
1 2.208901 1.782069 4.145571
1 4.206067 2.457397 6.367549
1 4.480570 2.375037 8.122512
1 3.851908 2.582780 9.777840
1 4.659557 5.551375 9.650023
1 5.315765 2.178741 12.555243
1 5.483631 3.647024 13.458758
1 5.162004 3.475702 0.836248
1 3.711565 3.162342 2.421325
1 5.950828 3.414139 4.955767
2 4.381918 2.226356 4.244522
2 5.154861 4.630383 4.357067
1 4.474568 4.910133 8.265301
1 3.543255 4.543320 10.494129
1 5.597023 3.702525 11.279396
2 4.141136 3.557149 12.408090
1 4.187387 5.571092 13.744876
1 4.017408 3.938067 0.350625
1 4.563989 4.815200 2.915239
1 4.026512 5.165415 3.992277
1 4.664747 5.789130 3.437242
2 4.164782 5.073904 6.031632
1 5.585765 5.675844 7.864212
1 5.686567 6.236807 8.607307
2 4.971071 8.111839 9.876263
1 5.714480 6.457914 12.684479
1 3.640798 6.664657 13.844588
1 3.136973 5.652614 0.196625
1 5.070016 5.159824 2.110635
1 3.809561 7.451770 1.912528
2 5.125668 7.368810 3.275888
1 5.135241 5.978431 6.742128
1 7.590969 8.298484 7.977954
1 5.529497 7.328245 8.489074
1 6.078095 5.429649 9.642419
2 5.679924 7.354320 13.131841
1 5.898826 10.769508 13.639107
2 5.725821 6.517615 1.179639
2 6.948008 6.360282 1.864776
1 5.966223 6.200412 5.267360
1 5.466773 8.985347 5.883841
1 5.480013 7.509112 6.658624
2 6.270548 8.524188 7.272160
1 6.258378 8.660896 8.528196
2 6.479060 8.498626 11.005113
1 5.336589 9.167202 10.056971
1 5.023309 9.181302 12.737720
1 6.211198 8.173943 1.470279
1 6.575366 7.888663 0.491918
2 6.985517 7.176371 4.893464
1 7.149937 9.275563 4.893022
2 8.532763 8.720571 5.951662
1 5.142342 11.465595 7.229095
1 5.912210 10.228096 9.315308
1 5.087750 10.819250 10.306177
2 5.034732 10.175854 12.932583
1 5.966779 11.624653 12.650783
1 5.474345 7.689246 0.891756
1 6.257836 11.548460 0.580239
1 6.837042 11.658026 2.176540
1 7.005436 9.407117 8.211319
2 5.561039 9.922459 6.635233
1 7.006604 11.707142 6.481385
2 6.533599 11.462616 9.315893
2 6.973885 9.609236 9.381453
1 5.196614 10.667088 11.941828
1 4.788894 14.311671 13.688734
1 5.332615 12.066372 -0.126144
2 6.224167 12.669686 2.484007
2 7.852035 11.601053 4.656750
1 7.095082 12.338607 3.171340
1 6.741411 11.381100 5.387068
1 5.981646 13.206148 8.110928
1 4.746379 13.138044 10.610288
1 5.648537 14.064807 10.142952
1 6.510610 13.444450 12.279668
1 6.263645 12.834565 10.760060
1 5.809213 13.751770 0.005345
1 5.817988 12.529900 0.903033
1 6.670459 12.398707 1.408190
1 4.557488 13.990001 4.985043
1 4.680988 13.696110 7.356116
1 8.331988 0.011776 7.390202
1 7.117196 -0.926732 9.145561
1 6.632220 1.069213 9.826242
1 6.053641 2.140193 11.821309
1 6.199368 0.041990 14.715324
2 5.325272 2.385799 0.624788
1 8.425976 0.624026 1.330293
2 6.552415 1.708877 3.078339
2 5.268480 1.169107 5.082942
1 6.046838 0.410042 6.118020
1 4.717329 1.921453 5.704047
1 5.166110 1.409415 6.734857
1 5.508167 2.448579 9.560225
1 6.226712 2.546199 13.064024
1 6.278914 2.816326 14.111657
2 6.460709 2.220820 1.515478
1 4.411601 1.069707 1.688697
1 6.341673 2.406926 4.044491
1 5.667952 2.850859 5.904387
1 5.966999 1.964330 5.446387
2 6.517126 3.488172 6.542653
2 4.835840 3.250414 9.182966
1 6.363251 2.941792 11.101090
1 6.680034 3.890116 11.747129
2 8.298462 2.805237 12.697397
1 5.644827 4.474250 -0.698470
1 5.866484 3.820131 1.731554
1 5.023618 2.740193 3.196651
1 6.593510 4.186996 4.633283
1 5.285603 4.056003 5.387826
1 6.851088 5.623833 8.653742
1 5.928653 3.270731 7.498017
1 7.440324 6.619301 10.238624
1 7.713110 3.755432 11.349561
1 5.317823 5.190402 11.521749
1 4.809319 4.748414 0.103480
1 7.094964 2.757657 2.209832
1 4.797546 4.026537 2.478709
1 6.812174 2.635231 7.212506
1 6.109105 4.735946 5.361450
2 6.527946 6.504480 7.837840
1 4.536441 4.599477 9.318679
1 8.964636 6.905749 8.258614
1 3.651100 5.548880 10.085695
1 6.129713 5.971133 13.723445
1 5.206420 5.764131 -0.375875
1 6.516010 5.634950 1.153906
2 4.895761 6.385215 2.104527
2 3.902917 6.396673 1.393584