1000
Lattice="10.772173450159416 0.0 0.0 0.0 10.772173450159416 0.0 0.0 0.0 10.772173450159416" Properties=:species:S:1:pos:R:3 Time=1000
1 5.936950 5.361137 5.997167
1 5.696478 5.829422 6.942049
2 5.727869 6.593456 7.710876
1 5.212503 5.888609 8.508898
2 6.887494 5.146566 10.598385
2 5.464663 5.664252 0.286348
1 4.971377 6.022397 1.672600
2 6.298565 6.292878 3.048932
2 6.275990 6.162840 4.175774
2 5.523510 4.857076 4.713320
2 6.730874 7.288799 5.943680
1 6.188381 6.677458 6.758400
2 5.260280 7.695180 7.893251
2 5.574125 6.403694 9.327675
2 5.604488 6.661034 10.395829
1 5.913059 6.755225 0.616697
1 6.502798 7.521805 1.459845
2 5.526178 7.132042 3.062993
2 6.480157 7.262702 3.796888
1 6.461993 7.056427 4.903946
2 5.257675 8.343388 6.273437
2 6.020557 7.672469 6.823842
2 6.214248 8.150353 8.112889
1 5.686176 7.478021 8.845125
2 5.972104 7.592081 9.982236
2 6.055070 8.226277 0.809803
1 5.951169 7.928408 2.199519
1 7.013470 8.394061 3.398037
1 5.628512 8.204468 3.332103
2 6.659346 8.346448 5.404328
2 6.032778 9.420798 5.998511
2 6.518194 9.547525 7.013814
1 5.787648 8.624327 7.355456
1 6.149397 9.191841 8.444715
2 5.763959 8.658398 9.390915
1 5.717818 8.568187 -0.298739
2 5.564481 9.195136 1.292023
2 6.136169 9.106052 2.676344
1 5.200763 9.768891 3.370929
1 6.109777 8.967643 4.120665
1 5.930411 10.297888 6.529677
1 5.437252 9.445666 7.758644
1 6.545399 11.029680 8.402121
2 6.425270 9.755044 9.405161
2 5.253359 9.817196 10.160499
2 5.300866 9.859871 0.511929
1 6.077400 10.219386 1.325773
2 5.831765 10.294492 2.590298
1 4.805174 9.883431 4.844817
1 5.953881 9.932232 4.962086
1 6.246118 0.192519 5.703571
1 5.889689 0.823569 6.562469
2 6.340663 0.932358 7.617895
1 5.528634 0.764055 8.429215
2 5.999981 -0.033026 9.614109
2 6.142900 -0.439232 -0.026665
2 6.588934 1.154845 1.418751
1 5.792117 0.691723 2.033115
2 5.580714 0.067794 3.730725
1 4.914115 0.123971 4.565582
1 5.968894 1.629812 5.695371
2 5.559500 1.524300 7.201455
1 5.980631 1.683714 8.568415
1 6.814938 1.690723 10.077858
2 5.412548 0.937605 10.423822
1 6.457344 1.523087 0.245771
2 5.558428 1.670585 1.470213
2 6.466564 1.432066 2.576788
1 6.542244 1.067311 3.956515
1 5.710451 1.485788 4.638138
2 5.793957 2.722262 5.731789
2 5.978926 2.663314 6.876710
2 5.895602 2.878572 8.097020
2 5.811610 2.531549 9.169918
1 5.755988 2.157362 10.208093
1 5.532814 2.735404 0.934359
2 6.632000 2.396125 1.933565
1 5.499829 2.828912 2.159983
1 5.771971 2.192622 3.832144
2 5.080369 2.936005 4.307192
2 6.398785 3.785248 6.407239
2 6.802572 3.603329 7.560654
2 5.536369 3.801364 7.616204
1 6.120355 3.664895 9.404263
2 6.151698 3.469892 10.669222
2 5.408817 3.944580 0.636440
2 6.139396 3.434781 1.443694
2 5.510286 3.933727 2.347400
1 6.119315 3.948079 4.417964
1 6.404703 4.342604 5.344108
1 5.508917 4.315136 5.707561
2 5.827066 4.566412 6.898537
2 6.277348 4.515105 8.600119
1 5.443642 4.898826 9.112715
2 5.615165 4.265627 10.152145
1 6.493288 4.314610 0.470033
1 6.273395 4.523098 1.473006
1 5.427675 5.066959 2.162841
2 6.085760 4.985867 2.984984
1 5.314721 4.271114 3.678749
2 6.546762 5.455168 5.227196
2 7.075283 6.291238 6.394091
2 6.494823 5.807266 8.419907
2 6.724037 5.270867 9.430143
2 7.706825 5.903935 10.061290
1 6.580759 6.136184 0.066009
1 5.936055 5.818611 1.326669
1 6.694380 5.243582 2.136933
1 7.182199 5.544616 3.131675
1 7.365028 5.845745 4.215862
2 7.547536 6.361592 5.290330
2 7.056481 7.131449 7.317945
1 6.554654 6.904374 8.301241
1 6.698717 6.429800 9.312375
2 7.232063 7.012943 10.095834
1 6.931131 6.664856 0.884453
2 7.033251 6.240247 1.857438
2 6.803989 7.350870 2.597183
1 7.284877 6.541931 3.265234
1 5.627371 6.416805 5.511843
1 7.529167 8.005120 6.165275
1 6.820322 8.429299 6.887501
2 7.257044 8.028166 7.820769
2 6.637535 7.685506 9.040358
1 6.868946 8.103355 10.166215
2 7.038543 7.609575 0.439827
2 6.636030 8.839240 1.522392
1 7.552938 8.062313 2.174061
2 7.058442 8.002558 4.357984
2 7.664863 7.659275 5.162472
1 7.184377 9.136088 5.759194
2 7.779183 8.886001 6.758616
1 7.238369 9.028564 8.069692
2 6.878279 8.797835 9.228063
1 6.510566 9.361562 10.623900
1 6.765355 9.805265 0.742012
1 7.018991 9.799727 1.765917
1 6.825292 9.551428 3.606861
1 7.162622 8.995612 4.466210
2 7.359055 9.856301 5.029995
2 6.984347 10.248373 5.947521
2 6.674939 10.711700 7.166091
2 6.484615 10.042258 8.028331
2 7.126929 10.586731 9.240868
1 7.248444 10.445336 10.474029
1 6.209506 11.115548 0.785772
2 6.711349 10.802915 1.838625
2 7.048026 10.267471 2.850749
1 6.480813 10.334643 4.217829
1 7.181767 10.867381 4.766449
1 6.847450 1.029427 5.474986
2 7.198894 0.468879 6.272211
2 7.413724 0.525302 7.600250
2 7.118219 1.015414 9.089203
1 7.502279 0.538521 10.052388
2 7.426904 1.044874 0.628259
1 8.261890 1.216642 1.411445
2 6.490668 0.478878 3.043394
1 7.691385 0.814288 4.211481
1 6.078339 0.400990 4.658952
2 6.757217 1.897763 4.887570
2 6.716523 1.558721 6.437590
2 6.545051 2.009399 7.553518
1 8.081303 1.592237 9.982816
1 6.553313 0.645553 10.466343
1 7.693701 2.398049 -0.162643
1 7.630312 2.097177 0.906945
2 7.445979 1.156216 2.262849
1 7.359145 1.205112 3.359336
1 6.805746 1.999988 3.904025
2 6.740333 3.302785 5.254736
2 7.009781 2.566362 6.359691
1 7.364458 2.748735 7.559700
1 6.836795 2.162611 8.976510
2 6.733440 2.819907 9.805450
2 6.737830 2.787777 0.561921
1 7.471251 3.026044 1.446637
1 7.504890 2.158217 2.832304
1 7.084377 3.072439 3.435464
2 6.099486 2.805972 4.616121
2 7.544945 3.918441 6.121960
2 7.370126 4.385874 7.166173
1 7.846560 3.728291 8.011703
1 6.830789 3.285863 8.803048
2 7.253557 4.301939 8.807671
2 8.358397 3.879746 0.543340
1 7.271400 4.049313 1.044992
2 6.683506 3.385916 2.519441
1 6.674494 4.017237 3.531682
1 7.182024 4.178016 4.775175
2 6.820313 4.831043 6.359168
2 6.559381 5.352263 7.324287
1 7.247012 5.109116 8.018563
2 6.899235 4.071862 9.978894
1 7.658070 4.728797 11.020896
1 7.405401 3.487287 -0.003187
1 6.962505 5.405229 0.848675
1 6.956477 4.383769 2.524266
1 6.532759 5.140785 4.116398
1 7.432068 4.828925 5.465874
1 7.834960 5.544256 5.922742
2 8.277547 6.341483 6.690307
2 8.779033 5.822097 7.598083
1 7.475536 5.778139 8.833559
1 8.642063 5.823912 9.551486
2 8.459194 5.242510 -0.173854
2 8.154158 6.299412 0.765787
1 7.996482 5.910665 2.288686
2 8.485854 6.278609 4.362942
2 8.839786 6.205986 5.705272
1 9.005309 7.898496 5.301138
1 8.073499 7.546530 6.975290
1 7.984247 6.534966 7.696194
1 7.433098 7.098805 8.698031
1 8.433896 6.787897 9.332900
2 8.164880 7.287045 0.100326
1 7.757438 7.061506 1.252133
1 7.839493 6.992927 2.318918
2 8.528982 7.375226 4.455917
1 7.514354 6.906943 4.102971
2 8.738335 8.201159 6.466630
2 8.346789 8.412424 7.527701
2 8.427204 7.581060 8.234128
2 7.926372 7.684833 9.597238
2 7.870740 8.453145 10.428824
2 8.077576 8.160318 0.733543
1 8.538674 7.538909 1.840160
2 7.873546 7.836260 3.270220
2 8.014877 8.421814 4.216665
1 8.139682 8.770937 5.436044
2 8.058145 9.634029 6.014129
1 9.267313 8.737241 7.230407
2 7.941151 8.533393 8.664766
1 7.484599 10.227702 8.182679
1 7.648103 9.617172 8.988463
2 7.263691 8.835162 0.517867
2 7.747996 8.900654 1.480546
1 7.159721 9.095236 2.524874
2 7.911729 9.201412 3.356187
2 8.338820 9.456914 4.600665
1 8.256203 10.668218 6.119629
1 7.506435 9.887154 7.145910
2 8.182657 9.449983 7.855659
2 8.776925 10.086565 8.783998
1 8.162276 10.912055 8.942592
1 7.188480 10.721036 0.756550
2 7.956440 9.968375 1.155390
2 8.146871 10.232178 2.504383
2 7.695417 10.104323 3.995630
2 8.816579 10.145159 5.385633
1 7.997603 1.272536 6.259344
1 8.353372 1.346612 7.664007
2 8.462513 0.125456 7.971996
1 8.154744 1.122619 8.743406
2 8.625759 0.374256 10.392172
2 8.550796 0.239174 1.086232
1 7.772314 0.223173 1.849750
2 7.757632 0.239708 3.263575
2 8.447047 0.143333 4.259186
1 8.067667 0.472212 5.312025
1 7.575787 1.722178 7.176981
2 8.411208 2.376289 7.804234
1 7.551204 1.866766 8.321613
1 9.052646 0.391087 9.335967
1 8.450542 1.599149 10.876884
2 9.011078 1.986566 0.924738
1 9.101668 1.597709 1.950018
1 8.458211 1.870025 2.890275
2 8.606115 1.032269 3.592237
2 7.855913 1.503431 5.034305
1 7.969172 2.303880 5.793346
1 8.032797 3.092519 6.736977
2 8.772588 3.363206 7.475384
2 7.955973 2.939464 8.699837
1 7.852901 2.542779 9.613793
1 8.385941 3.173791 -0.481194
1 8.136968 2.881684 0.642060
2 8.124127 3.055537 2.974711
2 7.836745 2.037850 3.884135
1 7.296913 2.874369 4.520012
2 8.804131 3.671744 5.985266
1 8.375039 4.734602 6.460168
1 8.311199 4.578732 7.603323
2 8.357299 3.918596 9.042948
1 7.580119 3.522179 9.603002
1 8.464308 3.563231 1.516207
1 7.623762 3.617563 2.169628
1 7.793052 4.300472 3.097225
1 7.897202 3.621057 4.058879
1 7.867956 3.236855 5.533087
2 8.277203 4.227480 4.903392
1 7.648872 5.590110 6.954964
1 8.247264 4.881735 8.539925
1 7.732652 4.892448 9.539769
1 8.330565 4.152312 10.124391
1 8.223070 5.248763 0.869035
1 7.665167 5.037546 1.833406
1 8.531077 4.937003 2.557460
1 7.591202 4.784134 3.986328
2 8.044029 5.338293 4.878705
2 8.994907 5.019527 5.374307
1 9.315945 6.541912 6.756842
1 9.280796 5.459452 8.763201
1 9.420231 6.382717 9.253207
1 8.866104 6.458330 10.207868
2 9.111868 5.821696 0.928725
2 9.411785 5.322415 1.901162
2 8.527856 6.729667 3.207883
1 8.177054 5.546953 3.365462
2 9.420318 6.278199 3.761941
2 8.301398 7.223264 5.958345
2 9.782341 6.335715 7.952042
1 8.709834 6.482296 8.434039
1 9.422739 7.207908 8.498547
1 8.801305 7.891330 10.326330
1 8.929374 7.177568 0.948228
1 8.986671 6.375572 1.913113
1 9.151843 7.632914 2.662231
2 9.430244 7.381143 3.750525
2 9.570120 6.855186 4.782646
1 10.048761 8.833115 4.903234
2 9.244149 7.429093 7.306620
2 10.338265 7.560940 7.918235
2 9.359388 8.280525 8.886631
1 8.534671 8.938518 9.512214
2 9.151893 8.191838 0.547679
2 9.415547 8.048283 1.553858
2 8.560112 8.996470 2.363493
2 8.778411 8.304039 3.360962
2 9.165286 8.579697 4.468358
1 9.113689 9.014742 5.574970
1 9.986255 9.609806 5.636874
2 9.030844 9.044051 8.283827
1 9.468789 9.477254 9.208266
2 7.772417 9.495004 10.031764
2 9.714770 9.049683 1.938754
2 8.664452 9.081694 0.980255
1 9.315663 9.763762 2.728683
2 9.694159 9.111016 3.723107
2 9.586224 9.707944 4.663656
2 9.035744 9.414411 6.502558
2 8.329821 11.383485 6.887544
1 9.141957 10.163770 7.482358
1 9.954149 9.823231 8.329854
2 8.884388 10.099599 9.869909
2 8.751748 10.092059 0.397459
2 9.027710 10.079283 1.618118
2 8.983902 10.617071 3.179404
1 8.748142 9.735102 3.732903
2 10.518548 10.300266 4.776703
1 9.076386 0.491630 5.829215
2 9.117518 1.302828 6.563618
2 9.276528 0.760650 7.485440
2 9.463850 0.061575 8.391646
2 9.725647 0.485385 10.147519
2 9.634026 -0.051353 0.761100
2 9.333809 0.580043 1.746012
2 8.527832 0.703535 2.469068
1 9.739794 0.574135 3.839196
2 9.502246 0.046701 4.771967
1 9.554260 2.374277 4.645165
1 9.404322 1.944619 7.688470
2 9.209980 1.176184 8.636772
2 9.092935 1.404624 9.811030
2 10.230545 1.550580 10.173442
2 9.409852 0.989731 0.504026
2 8.314035 2.384912 1.805530
1 9.571311 1.622157 3.062510
2 10.306787 1.952709 4.030510
1 8.828180 1.402055 5.558743
2 8.471843 2.331468 4.728420
2 8.747130 2.333333 6.794794
1 8.590070 2.108060 9.004673
1 10.670588 2.462385 9.411007
1 8.996624 2.474098 9.909974
1 9.478963 1.964799 0.069928
2 9.408792 3.210615 1.433365
2 9.192858 2.870548 2.691748
1 9.013635 3.114520 3.959564
1 8.994538 2.062583 3.697654
1 9.778408 4.612584 5.868365
2 9.350768 4.265849 6.761016
2 9.290939 2.858747 8.679531
2 9.161910 3.549452 9.604905
2 9.351708 4.497173 10.644127
1 9.138485 3.066591 0.135316
2 10.060570 3.277450 2.207568
1 9.066316 4.084752 2.249292
1 8.757526 4.103745 3.617030
1 8.869795 3.211098 5.013280
2 9.156005 5.401040 6.620176
1 9.712594 5.200326 7.761474
2 9.267491 4.259149 8.168805
2 9.026793 4.778689 9.631868
2 9.649894 5.578308 10.439266
2 8.921951 4.509826 1.178848
1 9.930257 4.135549 1.684385
2 9.185749 5.685566 2.921906
2 9.836857 4.923449 3.674510
1 8.852932 5.101798 4.012544
2 9.873538 6.105500 5.661526
2 10.164307 5.822886 6.933592
2 11.306364 6.919458 8.379400
2 10.391868 5.698757 9.048709
2 10.350013 6.384388 10.008576
2 10.181820 6.353902 0.431603
1 10.076981 5.931568 1.433528
1 10.501776 5.679104 3.713644
1 9.638314 6.732143 2.730995
2 9.528360 5.783233 4.677968
2 9.352571 7.169430 6.000603
1 10.295481 6.848156 7.125866
1 10.352670 6.773759 8.960100
1 11.192020 7.031318 9.722937
2 9.379930 7.195313 10.786015
1 10.159575 7.786411 0.565844
2 9.855282 6.959804 1.591840
1 10.300215 5.844483 2.395284
2 10.693591 6.636814 3.124335
2 10.499122 6.430543 4.477502
2 10.774330 8.230730 5.694502
2 10.173261 7.807650 6.675546
2 10.490175 8.843150 8.661750
2 9.368082 7.364376 9.760106
2 9.949446 8.693968 9.736446
2 11.034979 7.907785 1.295436
2 10.691502 8.622989 2.228525
1 10.222127 7.573161 3.130302
1 10.085217 8.177129 4.113866
1 10.006222 7.777294 5.067086
1 11.435561 9.352859 6.489533
2 10.207624 9.150227 6.549059
1 10.081603 8.672491 7.740745
2 10.551003 9.613315 9.668422
1 8.907869 9.169161 10.487718
1 9.768957 8.754485 0.069979
1 10.442214 8.726525 1.220410
1 9.975591 8.483982 2.925733
2 10.778662 9.209148 4.072714
1 10.880112 9.277524 5.228224
1 9.993693 10.668370 5.653092
1 10.547973 10.229096 6.669497
2 10.256918 10.743706 7.590264
2 9.913203 9.984815 10.618508
2 9.831918 9.656652 11.701207
1 10.668384 10.637075 0.889586
2 10.084732 10.714266 2.084968
2 10.419948 9.655701 2.929335
2 9.949943 10.261196 3.758432
1 11.557515 10.829552 4.797205
1 10.034468 1.017600 6.142594
2 9.569407 0.167716 6.640524
1 10.146737 1.032190 8.175006
1 9.864284 -0.300184 9.422268
1 10.693443 0.292584 9.934493
1 10.734454 0.640815 0.176543
1 10.236976 0.748371 1.262983
2 9.651612 0.542290 2.796059
2 10.419690 0.783109 4.606023
2 9.249584 1.078203 4.537599
1 9.488698 2.168708 5.815050
1 10.525460 1.160374 7.285327
2 9.940853 1.976825 8.905861
1 10.070424 0.826165 9.221732
2 10.922954 2.366770 10.552621
2 10.356726 1.642676 0.585088
2 9.937238 2.069046 1.547664
1 10.178527 1.359175 2.258442
1 10.434797 1.188872 3.243730
1 10.280403 1.628303 5.331667
2 9.694390 3.160950 5.576150
1 10.356075 1.997991 6.589682
1 9.831240 2.876769 7.807883
1 11.347471 2.439409 8.539891
1 9.976706 2.792860 10.314939
2 10.344544 2.732264 0.732336
2 11.000596 2.680681 1.807493
2 10.378751 2.333095 2.751362
2 10.020701 2.921034 3.745928
2 10.461199 2.880622 4.698553
1 10.404384 3.779893 6.363775
2 9.774302 3.110644 6.765884
2 10.211014 3.833630 7.666933
2 10.028575 3.707718 8.772863
1 10.470843 3.721177 9.821590
2 9.931368 3.773012 0.583757
1 10.695959 3.551935 1.315102
1 10.875214 4.113887 2.223726
1 9.785233 3.948440 3.252385
1 9.478635 4.177886 4.668226
2 10.380676 5.260339 5.007860
1 10.246582 4.753824 7.017021
2 10.714268 5.740981 7.984619
2 10.106353 4.824999 9.544469
2 10.476078 4.643926 10.602334
2 9.868431 4.952264 0.745628
1 10.782571 5.097805 1.855311
2 10.035281 4.793780 2.585638
1 10.871183 4.815349 4.087515
2 11.424741 5.545255 4.803274
2 -0.286388 6.981109 6.119576
2 0.609591 6.740870 7.134483
2 0.594431 5.386442 8.664897
1 0.721889 6.235679 9.268830
1 0.533412 5.314850 9.759312
2 0.200037 5.555911 -0.031716
1 0.430042 5.684522 1.020586
2 0.764389 6.108373 2.433503
1 0.913745 6.565421 3.575347
2 0.157947 5.842469 5.833426
1 0.583891 7.619250 6.358522
1 1.450602 7.676779 7.360082
1 0.644969 7.804630 8.986409
2 -0.423325 7.864518 9.047378
2 0.149219 6.991421 10.788374
1 0.119460 6.676530 1.273478
1 0.925817 7.008985 1.736762
2 -0.032964 7.251991 2.180907
1 0.107891 7.376557 3.872362
1 0.270439 7.209772 5.190597
2 1.346314 7.501995 5.170671
2 1.298323 8.522653 6.760499
2 0.487867 8.432103 8.088026
2 1.038414 9.304666 8.775392
1 0.536723 8.629887 9.647052
2 -0.229471 7.947927 -0.556278
1 0.752084 8.022318 2.460509
1 1.028996 9.127355 2.236545
2 0.168516 8.571340 3.295740
2 0.396056 8.373915 4.674672
2 1.059045 8.694072 5.622802
1 0.296133 8.286360 7.052720
1 0.347662 10.009943 8.425795
2 0.615365 10.181913 9.551840
1 0.822105 9.439735 10.534886
1 0.244441 8.526162 0.295453
1 0.637400 9.215817 1.355330
2 -0.181942 9.761688 1.822347
2 1.130411 8.787576 3.760958
2 1.055007 9.619711 4.821704
2 0.340614 10.227303 5.691528
1 -0.035670 9.705246 7.557970
1 0.464449 11.027722 7.851656
2 0.162027 11.179645 8.897769
1 0.916436 11.324627 10.074629
2 0.178543 9.646555 0.551879
2 1.012548 10.331190 1.109165
2 0.601243 10.298921 2.251666
1 0.357768 10.292226 3.905514
2 1.495559 9.794982 5.927004
1 1.136656 0.185914 6.011414
1 0.028087 0.430704 6.522730
1 0.528418 1.346086 8.071441
1 0.199637 1.255220 9.414040
2 0.979576 1.451928 10.740295
1 0.725886 0.981893 0.871891
2 0.411037 0.435184 1.799814
2 -0.113111 0.175281 2.946430
1 0.575922 0.832364 3.689610
1 0.027605 0.517021 5.499686
2 0.469235 1.633462 5.862364
1 0.637808 1.266970 6.817118
1 -0.262829 2.008763 7.859454
1 1.588577 1.785691 8.671915
2 0.992303 2.061525 9.733895
2 0.617938 2.140384 0.849796
1 0.133318 1.582668 1.512562
2 0.488013 1.293784 2.628720
1 1.555121 1.184214 3.198964
1 0.559021 1.863036 4.833798
2 0.050191 2.847963 5.938350
1 0.544032 2.297998 6.797612
2 0.112066 3.112254 7.299046
1 1.087415 2.073351 7.640447
2 0.602221 3.201840 9.786817
1 1.150289 3.102829 -0.085093
1 0.944691 3.228476 0.986989
1 0.981909 2.311698 2.567508
1 1.086707 3.144734 3.356508
2 0.515215 2.259690 3.631484
2 1.104220 3.915340 5.624863
1 0.400758 4.376628 6.791597
1 0.322684 3.507383 8.461194
1 0.554021 4.315059 9.074921
2 0.092654 3.700484 10.980543
2 0.918925 4.203605 1.519376
1 1.022237 3.484183 2.367919
2 0.114256 3.294265 2.917617
1 -0.122148 3.808721 3.794672
1 -0.000738 3.733689 5.278984
1 0.013486 4.630880 5.874664
1 0.567234 5.397023 6.739370
2 0.610943 4.555102 7.840534
2 -0.374337 4.718372 8.442265
2 0.670314 4.284173 10.210680
1 0.155629 4.567651 0.826557
2 1.172822 5.129201 2.046511
2 0.257595 5.215646 2.930582
2 1.070947 5.521357 3.800946
1 0.476596 4.585425 4.976001
2 1.552983 5.886911 6.488283
1 1.551035 4.514604 6.546824
2 1.058165 5.618042 7.633650
2 1.549375 5.994783 8.576936
1 0.951990 6.278900 10.470875
2 1.300746 6.121962 0.818198
1 1.711802 6.356436 1.855461
2 1.797240 6.280625 3.212235
2 1.040482 7.631547 3.477563
1 1.520214 6.181683 5.033834
1 1.069021 6.582310 5.777357
1 1.923201 6.792527 6.992409
1 1.409858 6.662485 7.942292
2 1.431014 7.053614 9.275475
2 1.097698 7.593875 10.287258
1 0.972764 7.199225 0.621424
2 1.931022 7.330673 1.235784
2 1.604408 7.414687 2.578211
2 1.947229 6.729708 4.271353
1 0.776778 6.626192 4.542806
1 1.572337 7.373046 6.283113
1 1.818524 8.702633 7.876213
2 1.617835 8.283560 8.815449
2 1.527346 8.874080 9.980344
2 2.197355 8.015437 9.872436
2 1.330569 8.366642 0.708919
2 1.769043 8.276410 1.879309
2 2.195829 7.702775 3.690352
1 1.707488 8.415683 4.618942
1 2.072831 8.080150 5.607101
2 2.199077 9.343726 4.930909
1 1.822379 9.531361 6.939430
2 0.917927 9.286099 7.648375
1 2.024893 9.246020 9.020360
1 1.652292 10.021811 9.578200
1 1.463251 9.463699 0.686204
1 1.791888 9.727726 1.710877
1 1.843452 8.707204 2.782938
1 2.312967 8.956461 3.809332
2 1.684512 9.843859 3.948357
2 0.830377 10.431989 6.876454
2 2.091403 10.670990 6.628756
2 1.267235 10.351442 7.937322
2 2.645504 10.397057 9.566753
1 1.702402 10.039742 10.679342
2 0.509751 10.519313 -0.023210
2 1.572923 9.923528 2.804892
1 0.782419 9.489506 3.200230
1 1.434130 10.827014 3.781635
2 1.903694 10.482847 4.956221
2 2.102298 0.515524 5.640312
1 2.396154 1.471473 6.751740
1 1.437999 0.610557 7.998741
2 1.643498 0.189636 9.263727
1 1.138794 1.041693 9.087565
2 1.752322 0.462880 -0.084999
2 1.569897 0.468844 1.268353
1 1.832285 -0.060056 2.074754
1 1.237134 0.420500 2.745210
2 1.120351 0.939371 5.132471
2 1.524856 1.356948 6.015509
2 1.588639 0.871256 6.956668
1 2.215604 1.755229 7.713867
1 1.859994 1.440535 9.821848
1 1.787102 2.234430 10.815382
1 1.618696 1.566685 0.989004
2 1.457098 1.277185 2.206035
1 2.115913 1.895305 2.663318
1 1.516756 1.264992 4.173942
1 1.959850 2.070913 4.872041
2 1.224125 2.450290 5.747297
1 1.076858 3.305936 6.791492
1 2.020844 2.744449 7.946746
1 1.472239 2.780111 8.986210
2 2.102368 2.965297 10.067660
1 1.924071 2.942556 1.001411
1 1.348182 2.625244 1.774776
1 1.784065 2.902527 2.673251
2 1.749381 2.336239 3.606116
2 1.057439 2.784368 4.607459
1 1.911056 4.152285 5.053159
1 2.144385 3.577479 6.265316
1 1.291992 3.430764 8.019059
2 1.659357 3.903241 8.888462
2 1.815975 4.038115 9.990339
2 1.575778 3.836879 0.416786
1 1.952115 3.675856 1.805557
1 1.809006 3.838649 2.958302
2 0.887485 4.328893 3.106909
2 0.935961 3.833186 4.340649
1 1.196592 5.018286 5.725546
1 1.949608 3.724311 7.311494
2 1.739667 4.630658 7.998263
1 1.538627 4.958016 9.269359
2 1.478766 5.299411 10.321314
2 1.182095 4.943733 0.578089
1 2.251922 4.356427 1.039754
1 1.845262 5.077771 2.881474
2 1.646871 4.471691 3.889891
1 2.095895 5.375124 5.080149
1 2.765785 6.208317 6.338992
1 2.001529 5.285190 7.270658
2 2.391883 6.281812 8.047758
2 2.463244 5.434042 8.982981
1 1.836616 6.064630 9.622737
2 2.277809 6.491173 0.403122
2 2.795747 6.629065 1.629183
2 2.650178 5.695887 2.401828
1 2.844525 6.071535 4.611810
1 3.322833 5.170154 4.759857
1 2.847579 7.423386 6.025146
1 2.984750 6.943477 6.995947
2 2.211613 7.404125 8.133369
2 2.504721 6.725914 9.088790
2 2.110422 6.931928 10.205662
1 2.091695 7.814833 0.111537
1 2.937592 7.463430 0.529405
2 2.749039 7.313566 2.806948
1 3.061112 6.971642 4.267091
2 2.155736 6.733117 5.683031
1 2.698116 9.010368 6.133948
2 2.390595 7.970356 6.872737
1 2.710231 8.621355 8.246609
2 3.128288 7.851827 8.774136
2 3.049440 8.295931 10.609049
1 2.759209 8.412805 0.981429
1 2.755483 7.714112 1.838548
1 2.886022 8.319397 2.743995
1 3.633308 7.866349 3.919258
1 2.575098 7.829968 4.708974
1 3.808793 9.398223 5.131961
2 2.756991 8.950616 7.235556
1 2.239770 9.652070 8.156266
1 2.936602 8.803742 9.295992
1 2.233647 8.871317 11.055984
1 3.074278 9.430888 0.723500
2 2.672951 9.012253 1.868384
2 3.605536 9.556604 2.350804
2 3.514384 8.918996 3.343739
1 3.221773 8.766056 4.467515
1 2.602027 10.011441 5.839242
1 2.605498 10.224271 7.407632
2 2.301869 10.699036 8.382833
1 3.102308 9.932749 8.731561
2 2.515496 9.317846 10.105499
1 2.793273 10.492219 -0.113373
2 2.367874 10.340147 0.893362
1 2.307887 10.587316 3.220447
1 2.532252 9.620760 2.740232
2 2.766149 10.262084 4.272598
2 2.977246 0.553656 6.332133
1 2.600831 0.735486 7.625446
1 2.365200 1.095583 8.599597
1 3.090204 0.368474 8.922873
1 2.615239 0.729659 9.769647
1 3.246811 0.763876 -0.078474
1 3.157387 0.275544 0.888774
1 2.509766 0.699484 2.743909
2 2.259022 0.495203 4.179843
2 2.738477 1.453872 5.525096
2 3.204011 3.130491 5.408464
2 2.616073 2.396293 6.123371
1 3.113823 2.655538 7.794743
2 3.281449 1.434019 9.269960
2 2.376371 1.347749 10.838531
2 2.576559 2.179012 0.775431
2 2.722152 1.352792 1.633928
2 3.352602 1.748324 2.508861
2 2.859963 1.492728 3.458607
1 3.734425 1.366003 5.107368
1 3.297312 3.880416 6.203791
2 1.679092 2.415270 6.842807
2 3.479598 3.522793 8.618555
1 2.686339 2.070936 8.570985
1 2.636006 2.142644 9.633478
1 2.509181 3.345529 0.121811
2 2.466677 2.582508 1.861244
2 2.894739 3.411531 2.354245
1 2.667693 3.649455 3.395847
1 1.863853 3.031812 5.229241
2 4.150727 4.269057 5.556135
1 2.515828 2.975843 7.101071
1 2.593254 4.008715 8.102675
2 2.599936 3.120241 8.971758
1 3.108876 3.561067 9.952158
1 2.571263 4.349845 0.071025
1 3.093809 3.050823 0.965343
2 3.207431 4.135757 1.479549
1 1.926721 3.395986 3.974025
1 2.880669 3.544903 4.473477
1 3.003769 5.635032 5.553071
2 2.347009 4.724177 5.924996
1 2.642145 4.505856 6.995615
2 2.772081 4.291214 9.203100
1 2.576018 5.111140 10.130520
2 2.212468 5.281036 0.432863
1 2.310947 5.322038 1.495249
2 2.420012 4.525655 2.101033
2 2.202681 5.567818 3.967503
1 2.928731 4.337885 5.125130
2 3.438969 6.825834 5.351400
2 3.846673 5.875026 7.044715
2 3.596671 6.590659 7.873786
1 4.518559 6.098787 9.242350
2 3.124531 6.120233 9.823360
2 3.195379 5.921078 0.646747
1 3.591702 5.893849 2.122207
2 4.104419 6.090066 3.231115
2 2.942135 6.265133 3.301128
1 3.989467 5.944758 5.918709
2 4.176689 7.630633 5.819381
1 3.986937 6.868444 6.500294
1 3.158827 7.862775 7.690969
1 3.039320 7.362227 9.948230
2 3.814698 7.024649 9.221815
1 3.648293 6.703016 0.080607
2 3.850187 6.613987 1.222472
1 4.018357 6.935202 2.594481
1 4.249333 7.160803 3.566824
2 3.954045 6.241564 4.390679
2 3.312759 8.207368 5.421044
1 3.433061 8.061340 6.742126
2 4.285537 7.844362 8.344054
1 3.732673 8.354023 9.642758
1 4.127898 7.928923 10.398466
2 4.286620 7.482608 0.730767
1 3.851264 7.561791 1.724772
2 3.889216 8.578207 2.246794
1 4.258204 8.179822 3.327711
1 4.323782 7.448806 4.785317
1 4.154828 10.420103 5.404436
2 3.568300 9.637881 6.280986
2 3.870031 8.711540 7.630754
2 3.895073 9.031146 8.704998
1 3.605823 9.465621 9.622973
2 3.906217 9.082969 -0.280022
2 3.773447 8.392343 0.858891
1 4.386990 9.362105 3.106060
1 3.755898 9.667990 4.152308
1 4.194626 8.680965 4.205843
2 3.197278 10.790035 5.326704
2 3.819457 10.477458 6.754570
1 3.475978 9.750299 7.819015
2 4.125315 10.355957 9.016939
1 3.866007 10.767625 10.769816
2 4.264961 9.936101 0.448805
1 3.689205 10.179931 1.511397
1 2.933713 10.630969 2.164055
2 3.453710 10.214315 3.289908
2 3.795382 10.783988 4.409621
2 3.879828 1.290554 6.332169
2 3.761192 0.754670 7.383616
1 3.328407 0.005484 7.947428
2 3.733563 0.309633 9.778435
2 4.410023 0.962186 10.980286
2 4.264134 0.277719 1.047653
2 3.587486 0.750734 1.855576
2 3.599759 0.554720 3.202930
1 3.688824 2.122609 3.548649
1 3.732231 1.120387 4.116178
2 3.186816 1.752497 7.288607
2 4.351030 2.012018 7.087316
2 3.666282 1.635709 8.254620
1 4.807216 1.641124 8.957979
2 3.523856 1.783370 10.398056
1 5.428861 1.852887 0.377989
2 3.412253 1.431087 0.742633
1 4.261568 1.304753 2.801162
1 2.748336 2.626899 3.025370
1 4.637144 1.145980 4.752744
2 4.019436 2.277327 5.710410
2 3.607456 2.719229 6.775732
1 4.043059 2.905374 7.755339
1 3.935957 2.290667 9.047554
2 4.001351 2.945233 10.161806
1 3.700476 2.549746 0.328155
2 3.625204 2.300636 1.519601
1 3.726227 2.870999 2.837837
1 3.697974 3.092998 3.810920
1 2.989132 1.965098 4.549157
2 4.798835 2.819001 6.353228
1 3.287191 3.733462 7.402013
2 4.487603 4.165742 7.780126
2 4.265752 3.523886 9.343506
2 3.642237 4.369781 10.253953
1 3.442109 3.716951 0.326037
2 3.884971 3.307669 1.769637
2 3.664885 3.890778 2.956303
1 2.637780 4.599916 3.702585
1 3.996580 3.499301 4.710123
2 3.566380 5.112908 6.283118
1 3.766853 4.513324 7.097460
2 3.423377 4.645964 8.374447
2 3.461251 5.058071 9.492683
1 3.980713 5.630772 10.292639
1 3.563771 4.861858 0.528828
2 3.787390 4.956376 1.572647
2 3.366202 4.887177 2.536775
1 3.232313 5.388475 3.658020
2 3.640823 4.398576 3.936978
2 4.599640 6.625771 5.266738
2 4.945814 5.770347 6.208765
1 4.832050 6.008234 7.617092
2 5.750848 5.582489 9.937339
2 4.562070 6.715002 10.162947
1 4.245961 5.677637 0.540497
1 5.329280 6.052467 2.593763
2 5.127557 5.387182 3.427877
1 4.359347 5.235879 4.126616
2 5.342860 5.925752 4.619280
2 5.755388 7.619048 5.480734
2 5.189009 7.081713 6.297385
1 4.576450 6.987400 7.381348
2 4.586717 6.828454 8.474488
1 5.329456 7.814480 11.021287
2 4.792394 6.564795 0.524457
1 6.007408 6.708613 2.017574
2 4.730975 7.703289 2.385081
1 5.050437 6.344007 3.707468
2 5.507969 6.902222 4.526421
2 4.635387 8.478592 5.218684
1 4.016276 8.598492 6.157786
2 4.557402 8.084240 7.063627
2 4.751021 7.671834 9.625966
1 4.842897 8.700634 9.946685
2 5.305935 7.341353 1.402059
1 4.844347 8.388406 1.248685
2 5.111096 8.768943 2.350493
1 5.033581 7.955136 4.242376
1 6.003343 8.014526 4.494435
2 4.739523 9.526834 5.814134
1 4.676054 9.289492 6.933735
2 5.136792 8.700192 8.412498
2 4.832010 9.428356 9.156156
1 4.225355 10.234214 9.994403
1 4.775890 8.726952 0.314202
2 4.399057 9.325713 1.503698
2 4.835348 9.843700 2.375712
1 5.161458 8.907693 3.890741
2 5.633504 8.821982 5.243836
2 4.940194 10.385199 6.573105
1 4.536611 10.783112 7.921403
1 4.549911 9.792387 7.896492
2 5.311640 10.349388 8.700903
2 4.952310 11.060897 9.611804
1 4.974530 10.831710 0.100164
1 5.100637 10.559342 1.329922
1 4.044959 10.738306 2.199725
2 4.481536 10.471907 3.632253
1 5.246458 10.477434 5.541543
1 5.351532 0.790586 5.560553
2 4.749684 0.743380 6.866145
2 5.679291 -0.029053 7.642956
1 4.201590 0.786187 8.808482
2 4.269932 1.243754 9.799854
1 4.378786 1.951341 0.760806
1 4.533545 1.164007 1.632111
1 5.022476 0.289474 2.749385
1 4.581610 0.794818 3.685110
1 4.235816 0.519169 5.792099
2 5.007109 2.157721 5.084214
1 5.031270 1.623241 6.100095
1 4.678742 1.190038 7.862041
1 5.799166 1.188049 9.520536
1 4.685661 1.901466 10.404593
1 5.351411 0.860215 0.833497
1 4.630768 2.162038 1.718805
2 5.588440 1.190671 3.259819
1 4.675274 2.528224 3.200597
1 4.826491 1.820193 4.038366
1 4.935752 3.333746 5.379293
1 4.903330 3.009006 7.373340
1 5.010333 2.178678 8.019395
2 4.796952 2.970738 8.687712
2 5.263347 3.221791 9.943514
2 4.728714 2.874136 0.296409
2 4.910510 3.352512 1.443455
2 5.248555 1.916177 2.584723
2 5.801238 3.272518 3.493080
2 4.001392 2.425594 4.590392
1 5.379872 3.693389 6.514908
2 4.254762 3.656225 6.742333
2 4.480403 5.095677 8.587718
2 5.184930 3.928937 8.702149
1 4.505555 3.846552 10.524291
2 4.255150 4.144034 0.861949
2 4.387545 4.184128 2.071568
1 4.684326 3.348503 2.580753
1 4.564945 3.615478 3.490623
1 4.734309 4.098568 4.459335
1 4.756882 4.639722 6.297221
1 4.634040 5.134204 7.137847
2 5.572706 5.090501 7.804917
1 2.899776 5.455187 7.782853
2 4.544895 4.659267 9.788453
1 4.708497 4.885213 0.163659
1 5.352747 4.937259 1.094255
2 4.492038 5.406061 2.401629
1 4.549807 4.560374 3.102202
2 4.641034 5.242472 5.296366
