1000
Lattice="11.262478804436059 0.0 0.0 0.0 11.262478804436059 0.0 0.0 0.0 11.262478804436059" Properties=:species:S:1:pos:R:3 Time=1000
1 6.017496 6.060448 6.686647
1 5.277475 5.027850 6.736463
1 7.432678 5.394936 8.387275
1 6.546695 5.758035 10.359127
2 5.948977 6.733609 10.351417
1 5.268518 6.247445 -0.099934
1 5.303447 5.779169 1.104287
2 6.584874 7.939418 3.801749
1 6.708796 6.510551 3.957550
1 6.032895 6.329205 5.004920
2 7.562545 7.415794 6.736059
1 6.919225 6.547077 6.895678
2 4.905342 7.954165 8.920714
2 6.041216 7.684000 9.454194
2 5.764894 7.321950 11.263944
1 6.865381 6.980566 -0.288274
1 6.490784 7.361653 0.809915
1 5.948667 7.584152 2.950841
1 6.686695 7.586132 5.008878
1 6.219867 7.506378 6.006008
1 5.286324 8.761695 5.974622
1 6.438416 8.627972 6.194280
1 6.710348 7.975691 8.489455
1 6.537594 8.720956 9.233807
1 6.451069 8.489482 10.724872
1 6.262207 8.356960 0.475975
2 6.052341 8.339575 1.997075
1 6.906884 9.231844 2.374818
1 5.760100 8.604274 3.440889
2 7.480573 9.415608 5.183762
2 6.316584 9.882271 6.219147
2 5.678115 9.091226 6.926128
1 7.417630 9.643114 7.732931
1 6.306227 9.891685 9.953210
1 7.714550 8.978635 11.284102
1 5.589108 9.978507 0.381069
1 5.699568 9.688796 1.646836
2 7.071738 10.002344 1.650853
1 6.314493 10.343990 3.890112
2 5.946564 9.324073 4.174464
1 6.640699 11.368969 6.671802
1 6.009393 9.816204 8.198733
2 6.718164 11.518294 7.645820
1 5.160729 11.351365 10.425288
1 5.387390 9.200686 10.349454
1 6.555130 9.620290 0.057571
1 6.101998 10.729924 1.183689
1 6.344481 10.366840 2.533179
1 5.809649 11.957129 4.519718
2 5.878031 10.758531 5.794741
2 6.743163 1.088535 6.097747
1 5.618392 0.571755 7.771129
1 5.914907 -0.221226 8.564367
1 5.797547 1.136197 9.827669
2 6.276915 0.328837 10.901591
1 7.501321 1.633895 -0.053894
1 5.964622 0.395959 3.101634
1 6.325089 0.551148 2.134513
1 6.884407 1.736205 4.080874
1 4.622482 1.464230 4.336519
1 6.310464 1.978973 6.650261
1 5.501055 2.769377 8.241626
1 6.425430 1.839064 9.307074
1 7.123384 2.679516 10.116542
2 5.332676 1.004626 10.850187
1 7.058471 1.480770 0.795271
1 6.379001 1.937365 1.362147
2 5.658229 1.425593 1.975306
1 6.808460 0.642548 3.681157
2 5.771771 1.512894 5.350996
1 5.835090 3.175349 6.446921
1 5.169715 4.030176 8.226363
1 5.768405 2.705970 9.217525
1 3.802944 3.953502 10.397051
1 6.176368 2.558739 10.528128
1 6.121316 3.484693 0.607475
1 5.948411 2.969350 2.226318
1 6.153147 3.010106 3.284446
2 5.886569 1.923288 3.454928
1 6.035543 3.888954 5.501368
1 6.536596 4.652637 6.160283
1 6.470388 3.330909 8.244282
1 5.746635 4.282572 9.075544
1 6.733538 3.102544 9.234851
2 6.837289 3.543056 10.753531
1 6.129870 4.258079 -0.110589
1 6.043611 4.236729 1.511970
1 6.095053 4.799195 2.338052
1 6.232894 3.913532 2.847058
1 6.457942 4.715758 4.914888
2 4.852181 3.490174 6.295494
2 6.029177 4.681077 7.815899
1 6.830239 5.077399 9.170440
1 6.088102 5.823484 9.382768
1 6.079822 3.631376 9.843899
1 6.364194 4.570229 -1.097435
1 7.105267 4.938333 1.522955
1 6.025243 5.724788 3.260720
1 6.104584 4.491660 3.745444
2 4.908630 5.166313 4.719846
2 7.585570 4.569887 6.254498
1 6.675020 6.907042 7.982823
1 5.494667 6.420912 8.324776
2 7.448461 5.863298 9.365347
1 5.788113 5.309880 11.033186
1 7.278376 5.806313 0.891855
1 6.298084 5.799354 1.472464
1 7.014638 5.692621 2.490492
1 7.372570 5.740341 3.866968
2 7.059192 6.743697 5.625954
1 6.983798 5.569203 5.912379
2 6.655168 7.923228 7.530286
1 6.466365 6.786115 9.053401
1 7.137710 6.752994 9.770305
1 7.216100 7.956266 10.159294
1 8.096977 5.220278 0.551491
1 7.302228 6.655368 2.683498
2 6.721331 7.542095 2.337194
2 8.378925 6.232469 3.780643
1 7.427796 7.158496 4.517639
1 7.513120 7.661198 5.665047
1 6.682246 9.025928 7.317524
2 7.531924 7.865075 9.087215
1 7.587703 8.992935 9.138166
1 8.430854 8.078672 10.498090
1 7.386812 7.807391 0.345687
1 6.559512 9.291671 1.046895
1 7.365353 8.382711 2.562743
1 7.445115 8.561725 3.526901
1 5.889569 8.386522 5.079163
1 7.532555 8.543368 6.183708
1 7.384740 9.569785 6.586665
2 7.946569 9.878933 8.632188
1 6.940472 9.698716 8.810337
1 7.075300 9.184862 10.343504
1 7.860038 10.376287 0.990520
1 6.892807 10.659627 0.725417
1 6.943943 9.335056 3.947957
1 8.093474 9.597109 4.281731
1 7.661454 10.198149 5.765969
1 8.537829 10.097741 6.087879
1 7.149192 10.710760 8.353477
1 6.526113 12.393756 8.236522
1 7.092608 10.329741 9.496960
1 7.979026 10.065624 11.135891
1 6.954591 10.839383 -0.413009
2 7.886288 10.406560 2.428761
1 7.153640 9.901797 3.125061
1 7.374458 10.597817 4.902482
1 6.587885 11.103490 4.755227
1 7.498070 0.205630 5.913396
1 7.459190 0.641288 6.784795
1 7.679965 0.658583 7.893521
2 6.838216 1.591294 10.309955
2 6.166928 -0.220315 9.688885
1 7.529356 0.668887 0.518562
1 7.211224 -0.118089 1.850030
1 7.961323 0.339170 3.130582
1 6.983460 -0.253792 3.238789
1 6.778685 0.903939 4.688184
1 7.310630 1.753955 5.003407
1 5.547850 1.792079 7.851642
1 7.421342 2.640278 8.331490
2 8.513980 1.904785 10.605637
1 7.415253 0.737491 10.683279
1 8.361088 1.895622 0.846886
2 7.376528 1.767594 1.823463
2 7.215090 0.966832 2.869794
1 7.963952 2.148413 3.600273
1 8.552342 1.340902 4.297081
1 7.302643 2.509995 5.633294
1 6.774138 2.860317 6.510594
1 6.935725 2.157358 7.488710
1 7.893347 3.358690 10.564507
2 6.146488 1.920741 11.438745
1 6.812858 2.676096 -0.019576
1 8.301493 3.533045 1.847536
2 7.063254 2.246188 2.951921
1 8.196811 3.610010 3.304683
1 6.682297 3.810140 4.473491
1 7.737084 3.502889 6.870045
1 7.060638 4.644543 7.793863
1 8.180235 3.113419 7.707133
2 7.241511 4.057145 8.653954
2 7.073729 3.973848 9.650232
2 8.269884 4.140457 0.177529
1 7.759261 4.477949 2.318204
1 7.056835 3.787735 1.909410
1 7.241822 3.799506 3.210005
1 7.924949 3.891598 4.632050
1 7.478235 4.600507 5.061883
1 8.048781 4.548656 7.784761
1 8.029714 6.858710 9.161259
2 7.377423 4.836943 10.183896
1 7.202999 4.723563 11.351825
1 7.541854 4.106064 0.967633
1 7.325436 6.546136 1.525687
1 6.918869 4.784920 3.131758
1 6.235880 5.586787 4.390638
1 7.121379 5.674851 4.979291
1 7.939284 6.050903 6.124485
2 7.928574 6.501267 7.420822
1 8.434736 6.977326 8.212777
1 8.219143 6.095691 10.070952
1 7.665311 6.397271 10.918554
2 9.748865 6.967383 0.495190
1 8.198327 5.392117 1.919990
1 8.842976 7.427662 0.829873
1 8.272937 6.413844 5.086515
1 8.415232 7.419545 5.330097
1 7.558216 8.614181 7.755555
2 8.944281 6.533792 7.095451
1 7.737362 7.617366 8.007623
1 7.882440 7.291191 10.205782
1 9.578474 6.902160 10.527193
1 8.667304 7.047182 -0.297659
1 9.065948 6.985860 2.511138
2 7.686477 7.710407 1.576644
2 7.906985 7.127561 3.498836
1 8.339482 7.870928 4.231604
1 8.510926 8.930233 7.051257
1 8.691638 7.917095 7.257221
1 9.378729 8.411339 8.107671
1 8.525062 7.960123 8.564675
1 9.022846 8.999123 10.269449
2 8.141707 8.348560 0.872704
1 8.472374 8.308742 1.936354
1 8.337535 8.387358 3.108146
1 6.736827 8.619871 4.675411
1 8.369943 9.148212 5.953512
1 8.362670 10.025079 7.197502
1 10.864212 9.011077 7.313896
1 8.484034 9.238047 8.076152
2 8.875984 9.696970 9.285205
1 7.988154 9.594157 10.032939
2 8.855799 9.020172 0.093848
1 7.424961 8.788439 1.432672
1 7.966406 9.377790 2.281760
1 8.856327 9.113679 3.590674
2 9.182774 10.127460 4.204286
2 10.053619 11.307145 5.731052
1 7.318492 10.669187 7.307665
1 9.168370 10.610613 7.700567
2 8.389314 10.950911 8.818300
2 9.498644 11.202358 9.415277
1 8.056801 11.098030 0.059693
2 8.679046 10.318320 1.573801
1 8.703456 10.583254 3.310292
1 7.730203 10.534759 3.658046
1 8.973392 10.921574 5.594437
2 7.953080 1.351536 6.240797
1 8.592397 0.269697 7.665554
1 7.810724 1.455089 8.995273
1 7.536335 0.402397 9.436329
2 8.678861 0.725030 11.581067
1 7.752434 0.624385 1.436572
1 8.471182 0.573143 2.143848
1 9.462676 -0.035040 3.007510
2 8.435482 -0.158736 4.565517
1 7.833302 0.748941 5.155493
1 7.855059 2.346939 6.708150
2 7.980601 1.775777 7.759805
2 9.212856 2.205318 9.507832
2 8.393097 0.583041 10.251459
1 9.339088 1.482892 11.271975
1 9.726389 2.263208 -0.650033
2 8.237083 1.518540 2.537539
1 8.773755 0.804662 3.479063
1 7.503570 0.150098 4.238803
1 7.929159 2.729948 4.799231
1 9.405991 2.597973 6.402882
1 9.097103 2.401269 7.376512
1 8.576640 2.609265 8.611236
1 7.856784 3.215172 9.311689
1 8.608216 2.795260 11.260085
2 7.396091 2.823723 1.766540
2 8.458492 2.418486 1.851464
2 9.025734 2.112160 2.956475
1 7.018189 2.852830 3.848140
1 8.403796 3.194643 6.117394
2 8.328403 5.318063 5.486083
1 9.304020 4.745898 7.707869
1 8.812133 3.827279 7.320639
1 10.177979 3.937960 8.629058
1 8.263300 3.774968 8.562297
1 8.867201 4.403365 1.049278
2 7.531255 3.035844 0.650444
2 8.826135 3.193871 2.668263
1 8.701194 4.652025 4.795796
1 7.094056 3.495299 5.846774
2 8.423984 5.141696 6.788596
1 6.800491 5.462352 6.901467
1 8.589134 5.407586 7.798328
2 8.049675 4.778279 9.342144
2 8.291867 5.035310 10.723515
1 7.856233 6.772838 0.531159
2 8.790023 4.390504 2.500738
1 8.189695 5.446815 2.939027
1 7.866155 4.563790 3.481399
1 7.966360 5.282192 4.530714
1 9.342921 5.462693 6.285462
1 8.453305 6.014821 8.659883
1 9.052876 4.467742 8.656508
1 10.102154 5.912474 9.543440
1 9.249837 6.010755 10.906119
2 9.352984 4.862636 0.265538
1 8.910868 6.147028 1.486779
1 8.308653 6.320946 2.530667
1 8.747530 5.199376 3.750014
2 9.615018 6.104769 5.303311
2 9.312151 7.852250 6.428259
1 8.909246 6.737186 5.986185
2 9.224502 7.326213 8.940331
1 9.107668 6.344257 9.572791
1 11.021111 6.644063 11.285016
1 9.368987 7.919662 1.860209
1 10.751693 8.452103 2.700752
1 9.380588 6.564679 3.479957
1 9.668372 5.534196 4.251761
1 9.519625 7.279032 5.270422
2 11.512021 9.545099 6.466315
1 9.726943 8.701512 7.014135
1 10.447619 7.897585 7.844942
1 10.077033 8.020153 9.106509
1 9.084338 8.628844 9.323988
1 9.716166 8.988837 0.821380
1 9.985978 8.672107 1.853326
1 9.684549 8.406723 2.880429
1 9.013499 7.584650 3.433334
1 9.148323 8.525819 4.988702
2 8.585543 10.013996 5.125559
1 9.514251 8.913161 6.077152
1 9.964085 10.220958 9.285791
1 9.836256 9.342174 9.932130
1 8.442024 10.772225 9.842370
1 8.852817 9.127409 1.325058
2 9.077283 9.364128 2.312269
1 9.850400 9.289965 3.422951
2 10.105875 9.337580 4.651764
2 10.790642 9.879038 5.404629
2 9.597030 9.942742 5.667882
2 8.295112 11.240589 6.550701
1 10.252166 11.131475 10.489919
1 9.251897 12.405197 9.409747
1 9.181458 11.244626 10.785813
2 8.862004 10.039464 0.521112
2 9.663859 10.389164 2.207571
1 10.096449 10.351315 3.335966
2 9.561710 11.233530 4.481024
1 10.925789 11.032785 5.142926
2 8.897207 0.732604 6.180227
1 8.883032 1.282650 7.322328
2 9.766528 0.673854 7.334493
1 8.628990 0.800482 8.627771
1 11.010724 0.035492 11.272261
1 9.791347 -0.481599 0.386888
1 9.444895 1.017126 1.141129
1 9.948349 1.887055 2.494654
1 9.689828 1.853505 4.770356
1 9.198275 0.832806 5.145509
1 8.532730 1.712110 5.216693
1 9.247127 1.634035 5.891678
2 10.137732 1.646355 8.984926
1 8.749078 3.041070 10.275048
1 9.701866 0.952441 10.396154
1 10.093738 2.595978 0.580323
2 9.440872 2.051982 1.346616
1 10.822304 2.273930 3.108667
1 10.625062 1.384196 3.702696
2 10.661015 1.516286 5.947422
1 10.021328 2.410177 5.544120
1 9.164137 1.766942 8.421431
1 9.318168 3.467246 8.237392
1 10.027477 2.823341 8.986561
2 10.841579 1.331387 11.700536
2 9.901719 3.834498 0.567691
1 9.946441 3.178252 2.256390
2 9.855466 3.070086 3.567535
2 8.745386 2.872937 3.970177
1 10.451882 2.333323 4.203105
2 8.975130 4.144272 5.832728
1 10.015453 3.998285 7.448719
1 11.925276 3.257099 9.047022
1 8.999192 3.300894 9.265998
1 9.798095 3.544855 9.995260
1 9.034940 4.199289 -1.069320
1 9.600398 3.970121 1.753958
2 8.886381 3.354669 0.869384
2 9.014126 3.914794 3.920974
1 8.958453 2.534709 5.232013
1 9.848739 4.585779 6.068865
2 9.817458 5.839508 7.351160
1 9.308087 5.473000 8.951636
2 9.146359 5.369430 10.093961
1 10.144360 4.461299 10.732409
2 9.370585 5.133476 1.598184
2 10.858758 5.496068 1.441354
1 9.602004 4.953900 3.046325
1 9.826028 4.449838 4.636754
1 10.535728 5.244505 5.431123
1 10.550760 5.969273 6.355817
1 9.434928 6.379868 8.499351
1 10.607095 6.157563 8.177345
1 11.013602 6.583717 10.201066
2 9.558696 5.906775 11.936640
2 9.797091 6.894153 1.576985
1 10.104602 7.433999 2.561905
1 10.462138 5.203238 2.367606
2 9.485103 5.936323 2.497772
1 10.372897 7.064822 4.779702
1 10.280727 6.896806 5.964321
1 10.064323 7.261995 7.177782
2 10.173487 7.059671 8.588645
1 10.213895 6.914613 9.630192
1 9.451068 8.070398 11.122084
2 10.130155 7.910176 0.887596
1 11.394535 7.875356 1.958000
2 10.790188 6.596827 2.380882
2 10.675495 7.056780 3.591155
1 10.107007 8.078136 5.622263
2 10.821604 8.826061 5.800847
1 10.507892 8.013097 6.573847
1 11.125342 8.719789 8.268495
2 10.725508 8.605991 9.674763
1 9.769895 8.148391 10.140598
2 11.325517 8.711968 0.627476
2 11.261411 9.010970 1.690268
1 11.553403 7.512873 3.327919
2 10.072425 8.174023 3.872397
1 10.556300 8.386623 4.743731
1 10.497725 9.655121 6.702764
1 11.588748 8.214143 7.420699
1 9.706776 9.245161 8.848518
2 10.881424 9.776770 9.247723
1 9.285982 10.113798 10.394305
1 10.393285 9.984963 0.400863
1 10.140591 9.761058 1.448472
1 10.943334 9.484805 3.733413
1 10.443770 10.437593 4.253938
1 11.731087 9.510128 5.418556
1 10.974672 11.681972 6.005062
1 9.787931 10.545870 6.832862
1 9.987593 9.980098 7.824041
1 10.677393 10.894896 9.222947
2 10.867776 10.192659 10.380577
2 9.432527 11.195717 1.407594
1 10.708472 10.491111 2.008989
2 10.678916 9.663230 2.550162
1 10.350834 11.414453 3.706675
2 11.536263 10.125950 4.341744
1 10.908986 1.396698 6.925032
1 10.729279 0.053200 6.889768
2 11.089825 1.525111 8.282414
1 9.351718 0.092335 8.390431
1 10.303280 0.722183 9.536743
1 10.684562 0.785508 -0.592852
1 11.183318 -0.164153 1.009411
1 9.643292 0.888545 2.151347
1 9.766270 0.925584 3.225558
1 11.203572 0.372331 4.267009
1 10.785651 2.493313 6.249863
1 9.901749 1.642186 6.752502
1 11.511920 2.284001 9.639217
1 11.259185 1.952778 10.711218
1 11.973663 2.631796 11.165801
2 9.959471 0.588604 0.280288
1 10.476950 0.679721 1.251488
2 11.813307 2.144575 2.779800
2 10.378615 0.843511 4.852857
1 11.459640 2.171891 5.421054
1 11.043277 4.077392 5.698651
2 11.021235 3.736669 6.821346
2 11.226659 2.646103 8.209858
1 11.947786 3.078688 10.088553
1 10.389391 2.230890 9.845486
1 11.429533 2.479912 0.756038
1 10.849998 3.276898 2.723003
2 11.866877 3.232484 3.026413
1 11.264710 3.121712 4.148204
1 10.869679 3.238811 5.104445
1 10.038760 3.531642 6.149074
2 11.233621 3.745377 7.889754
1 10.929406 3.200427 9.918055
2 9.696469 4.693293 9.397421
1 11.305263 4.498008 10.724177
1 10.650075 2.878420 -0.192507
1 10.740503 3.299870 1.544930
1 10.478533 4.129983 3.468177
1 10.541959 5.073618 3.887756
1 11.454307 4.967509 5.226546
1 11.269672 6.799291 5.010829
1 10.088873 5.177422 8.364929
1 11.649906 4.972742 8.287487
1 10.209659 5.650462 10.537529
2 11.099569 5.556926 11.528184
1 10.722296 4.358732 0.309399
1 10.768592 4.469196 1.390777
1 10.689493 4.198507 2.330661
1 11.677320 5.388536 4.096448
2 10.702402 5.929388 4.426891
1 -0.479801 6.584575 7.107871
2 -0.389196 5.455674 7.357892
1 0.200631 7.006205 7.779273
1 -0.279833 6.460106 9.030554
2 0.205759 5.619134 10.112929
2 0.183589 7.509881 0.716267
1 0.738593 5.490978 1.688482
1 -0.240741 5.676843 3.093924
1 1.164528 7.757927 3.939863
2 -0.086766 7.850066 5.488540
1 1.078774 7.513528 6.760911
1 2.063231 7.670663 8.770267
1 0.802149 7.639396 9.469698
1 -0.172967 7.542575 9.573827
2 0.513468 7.465308 10.506383
2 1.164965 7.368100 1.385543
1 -0.545218 6.608225 1.253773
1 1.147933 7.911593 2.733970
2 0.356380 6.515524 3.227269
2 0.205613 7.670847 4.342226
1 0.057691 7.407710 6.868537
1 0.825041 7.812264 8.270945
1 1.296691 9.918832 9.545563
1 1.153440 8.610725 8.917085
1 -0.138985 8.956906 10.770856
1 1.083307 9.081520 0.608733
1 2.192814 7.168541 1.177449
1 1.454607 8.606340 1.411657
1 0.115763 8.616741 3.612222
1 0.865452 8.290428 5.023139
2 1.442268 9.401648 5.842766
1 -0.049215 10.355735 7.203876
1 -0.378546 9.841417 8.061436
1 -0.898183 11.124201 8.091645
2 0.870215 9.395747 10.523364
1 -1.452224 9.345721 -0.107595
1 0.731111 8.989411 2.612856
2 0.038522 10.711470 3.440647
1 1.845825 8.767427 2.302367
1 0.103819 8.887772 4.745633
1 0.780802 11.631858 6.090602
2 1.120503 11.897760 8.101765
1 0.018728 11.618790 8.812974
1 -0.133477 11.485590 9.884914
1 0.563040 11.317095 10.837699
1 0.890246 10.409564 0.588953
1 0.612719 9.784772 1.412846
1 -0.271224 11.540572 1.997351
1 1.203861 9.797069 4.260488
1 0.984978 10.484802 5.086882
2 0.751552 1.802156 6.257318
1 0.186670 0.440244 7.427655
1 -0.167799 1.398033 9.390632
1 1.078242 2.000686 9.229191
1 1.122554 0.819591 11.487998
1 0.360441 0.810539 1.063710
1 0.628179 0.955464 2.068073
2 -0.414734 1.269068 2.634947
1 0.983446 0.492685 4.617791
1 0.215375 0.932999 5.312649
1 1.972902 1.073635 5.626221
1 0.094625 2.830678 7.130227
2 0.643634 1.404969 7.504886
1 0.880528 0.873522 9.194495
1 0.425797 1.046421 10.216681
1 1.313458 1.284696 1.370032
1 -0.497316 1.905151 1.518548
1 0.400870 0.367777 2.927639
2 0.328407 1.618885 3.921057
2 0.725941 3.783385 4.796775
1 0.644475 3.107634 6.153647
1 -1.305747 2.037795 7.672986
1 1.070112 2.161710 8.077443
1 1.810597 1.619585 7.410659
1 0.985803 3.778761 10.892348
2 1.202922 3.219609 1.099094
1 0.202007 3.595351 0.198765
1 0.354209 2.861236 1.919267
1 1.254328 3.255075 3.820405
1 1.346817 4.567075 4.028541
1 -0.341590 4.952629 6.399920
1 0.949894 4.144393 8.134038
1 -0.126513 4.344227 8.804417
1 0.909210 4.084432 9.663232
1 0.978201 5.107317 11.056780
1 1.968297 3.812362 0.233081
1 1.602238 3.523659 2.207759
1 0.256722 4.317397 3.572902
1 -1.336571 3.484963 4.911463
1 0.830897 3.574923 7.066633
1 1.163134 4.085329 5.681012
1 0.539001 4.487036 7.289471
1 0.606269 5.787063 9.019924
1 -0.413771 5.454600 9.032114
1 -0.633108 4.696315 9.758290
2 0.594698 4.866099 0.774376
1 1.367118 5.639630 2.469996
1 0.689241 4.905256 2.808864
1 1.482138 5.614472 3.731087
1 -0.475265 4.147120 4.588899
1 0.674522 6.494923 6.526614
1 2.256858 5.625248 6.023625
1 2.413255 5.481890 9.580903
2 1.483528 5.501623 10.150755
1 0.785405 6.614146 9.950291
1 1.019947 6.250888 -0.379999
1 0.616855 6.171484 0.803855
2 1.450483 6.733663 3.168159
1 1.128287 6.553063 4.220740
1 1.017434 6.012529 5.600492
1 1.623568 6.681388 5.985505
1 1.041023 6.964243 8.800043
2 2.324625 6.432155 8.866575
1 1.915643 6.931033 9.864205
2 0.454404 8.434484 10.002497
1 1.207855 7.268826 0.140927
1 0.750328 6.632032 2.161194
1 2.260145 6.977965 2.350920
1 2.166018 7.847719 2.959402
1 0.947252 7.102435 5.247387
2 2.955995 8.687449 7.515300
1 1.834817 8.938192 7.216944
1 1.961433 9.586010 7.880854
1 1.512011 8.078323 10.228355
1 1.133694 8.516031 11.039209
1 1.877541 8.353713 0.519794
1 1.879967 7.828423 1.973765
2 1.565430 8.737111 3.622533
1 3.620090 9.017804 4.423794
2 0.643663 8.352854 6.144693
2 1.936661 8.241379 6.192722
1 1.774701 9.828965 6.889134
1 0.973237 9.689948 8.612538
2 2.175732 9.465177 10.192574
1 1.343117 10.847573 10.200934
1 0.378157 9.698915 0.233293
1 1.882471 9.583859 1.175582
1 1.330193 9.746421 2.855190
1 2.881235 8.458128 2.170056
2 -0.056508 10.568155 6.062297
2 0.675320 9.164657 7.391511
1 1.522617 12.164933 6.772291
1 1.263797 10.250280 7.633224
2 0.418766 10.852275 8.120139
1 2.153032 9.101287 9.197621
1 1.457943 11.019232 0.048297
2 0.472999 10.386855 2.308970
1 1.472092 11.027800 3.867133
1 1.023209 12.126571 3.604248
1 2.167130 9.916954 3.527273
1 1.523723 -0.048535 5.541649
1 2.878724 0.902961 7.553157
2 2.134043 1.071106 8.236041
1 1.412343 0.728721 10.278645
1 1.681177 -0.556667 8.686775
1 2.173399 0.088341 -0.887925
1 1.261937 -0.656892 1.566755
1 1.596759 -0.397341 2.709545
1 1.797122 0.695159 2.618490
1 2.158657 -0.101453 4.717465
1 1.744899 1.393284 4.586356
1 1.340446 2.443888 7.015010
1 2.589217 2.741381 7.294066
2 1.145818 1.796687 10.477792
1 1.407396 2.303381 11.924909
1 2.085943 1.291268 0.569314
1 2.400122 1.275965 2.118118
1 2.987199 1.235461 1.301629
1 2.156236 0.871752 3.665239
1 1.323940 2.462057 4.457507
1 2.422346 1.593530 6.428510
2 1.791293 3.129637 7.933438
1 2.060771 2.191266 8.415307
1 2.696207 3.635315 9.635330
1 2.095163 2.461293 11.093322
1 2.559557 3.383992 1.592582
1 1.235008 2.313059 1.838630
1 1.664337 1.852984 3.579531
1 2.511382 2.438705 4.611655
1 1.836460 2.218879 5.535677
1 1.670472 3.201523 5.367186
2 1.770632 4.247938 6.959588
1 1.707431 3.405902 9.366190
1 2.498224 4.636754 9.099928
2 1.818995 4.418439 10.260507
1 2.365022 3.462880 -0.650351
2 1.135528 4.403358 1.631750
1 1.832904 2.345008 2.777980
1 1.974432 4.038821 3.265037
2 2.206818 4.125697 4.549680
1 0.838200 5.351643 6.648340
2 0.638704 5.758894 7.666046
2 1.521018 5.795582 8.370672
1 1.358475 4.887980 8.791711
1 2.133971 5.763736 10.903774
1 1.607466 5.308685 1.024283
1 1.627241 6.271582 1.413164
2 2.188661 5.203876 2.008718
1 2.581043 5.183080 4.175046
1 1.461916 5.350300 5.015566
1 3.199668 6.085282 6.898862
1 1.388206 4.984269 7.623779
1 2.564820 5.629252 7.943898
1 3.040737 5.803917 10.392476
1 2.600889 7.280880 10.808629
1 2.455968 6.427730 0.432063
1 3.337087 7.034379 1.650937
1 2.319312 5.957992 2.786053
1 2.193237 6.253567 4.008843
1 3.066228 6.518396 4.628907
1 2.602869 6.695921 5.972285
1 2.149497 5.923808 6.968695
1 2.607860 7.200277 8.017063
2 3.393493 6.612591 8.497830
2 3.190587 7.065003 9.700409
1 3.268444 8.214743 0.058101
1 2.740497 8.372086 1.000066
1 2.601342 7.049609 3.424511
1 1.882511 8.005882 4.955315
2 2.057519 6.924683 5.001537
1 2.767543 8.774216 5.175663
1 1.707496 6.830813 7.694027
1 2.237154 8.404450 8.220419
1 3.027766 9.142233 9.601844
1 2.255709 8.445615 10.801921
2 3.394919 9.381890 1.239739
1 4.209333 8.738467 1.053984
1 3.335791 7.770342 3.061033
1 2.940553 7.857502 4.191157
2 3.178610 8.647713 6.195580
2 3.434001 10.096993 4.102638
1 1.622672 7.852718 7.501592
1 3.742225 8.513742 8.522411
1 4.184569 9.967466 9.084765
1 1.910146 9.613718 11.326908
1 3.497668 9.903009 0.065298
1 3.003162 9.364456 2.480319
1 3.004642 8.788486 3.336368
1 4.264294 8.375131 5.208858
1 2.328107 9.227356 4.443398
2 1.064244 10.463868 6.255462
1 2.324247 10.598802 7.915204
1 2.831092 9.848612 7.165660
1 2.156511 10.672123 9.612563
1 3.079070 10.045352 10.334250
1 2.478161 10.514325 -0.168119
2 2.121928 11.683861 1.078964
1 2.183499 10.235371 2.150230
1 2.811234 10.438087 2.898350
2 1.997245 10.260407 5.245483
1 1.625318 0.007241 7.205062
1 2.432925 0.500451 6.411037
1 2.801922 0.394693 8.887670
1 3.173660 -0.817050 9.077897
1 3.463607 -0.002832 9.798316
1 2.712806 1.074388 -1.306680
2 2.814854 0.345595 0.296174
1 2.829695 0.221917 2.981390
2 3.162062 0.897261 4.264162
2 2.966555 -0.391892 5.671098
1 2.832789 0.522862 5.166549
1 2.874474 2.577300 6.061340
1 2.851588 2.652894 9.000861
1 1.883623 1.338467 9.484538
1 2.034976 1.306072 10.838379
1 2.231448 2.252467 1.253487
2 3.984552 2.120112 1.400482
1 2.605886 1.519932 2.986286
1 2.974955 1.908132 3.943740
1 3.622721 0.547289 5.766100
1 3.082566 3.695264 5.822075
1 3.062292 1.961433 8.234331
2 3.110309 3.087593 8.074733
2 2.064606 2.417471 9.658685
2 3.113503 2.818934 10.335270
1 2.749488 2.990975 0.256427
2 2.787314 3.750891 2.537276
1 3.021356 2.186541 2.109408
1 2.825528 2.709554 3.034135
2 1.668447 3.245415 6.550291
2 2.206732 4.476562 5.662895
2 3.044666 4.616417 6.640500
2 3.157747 4.730479 8.065168
1 2.467304 3.838936 8.471539
1 3.241567 3.877593 11.315181
1 2.834359 4.508951 -0.659103
2 4.018436 4.175047 1.179689
1 3.051137 4.733443 1.716986
2 2.531107 3.224793 3.865791
1 3.214702 3.433941 4.823922
1 3.853363 5.301471 5.673705
2 4.090300 5.209299 7.326223
1 2.627682 3.878485 7.476790
1 3.416444 3.708990 8.937431
1 4.039686 5.009974 10.566024
1 2.240609 4.334416 1.175144
1 2.773548 5.607922 1.102395
2 2.777844 4.862953 2.915108
1 3.223836 4.484109 5.082731
2 2.592749 5.698277 5.048561
1 3.595756 6.356951 5.608107
2 2.643619 7.225826 6.971371
1 5.000983 5.231528 7.895536
1 3.449104 5.960213 9.343381
1 3.727276 7.023659 10.857289
1 3.719396 6.042005 1.194614
1 3.638748 6.497440 2.672922
1 4.624476 6.115720 2.616556
1 3.178754 5.994948 3.427353
1 5.378276 6.432616 5.725390
1 3.504517 7.713892 5.178657
1 3.564067 7.312357 7.581545
1 4.439153 7.176137 8.157390
1 3.837941 7.658061 9.202100
2 3.651437 8.149647 10.110856
1 3.187079 7.355790 0.583800
2 4.078714 7.948209 1.867143
1 4.685595 8.043586 3.106221
2 3.698040 7.185629 3.821822
2 4.488017 6.987639 5.938446
1 3.628150 7.019150 6.371661
2 3.943388 9.475561 7.715462
1 4.702939 9.015696 8.500867
1 2.654742 8.115082 9.680568
1 3.782836 8.953140 10.787876
1 4.827214 7.942749 0.846324
1 5.074833 7.636652 2.261633
1 3.808343 8.716266 2.572774
1 4.193358 9.044885 3.648318
1 4.401240 8.089464 4.105297
2 3.696666 9.691104 6.431100
2 2.556335 9.738451 6.098881
1 4.141953 8.328068 7.401086
1 4.149908 9.240965 9.785398
1 2.851853 9.101196 11.543793
1 4.278019 9.813546 0.645160
1 4.368366 9.453372 1.730133
2 4.312402 10.539784 3.743510
1 4.417210 9.841299 4.524906
1 4.507011 9.470719 5.602458
1 3.419618 9.477548 5.384711
1 2.478175 10.655364 6.594645
1 3.885353 10.477858 8.197911
1 5.113685 10.069128 8.749438
1 4.035833 11.151089 8.819696
1 4.496337 10.717397 -0.067290
1 3.264534 10.632386 1.921738
1 2.872277 10.523141 0.747593
1 3.703939 9.775203 3.165573
1 2.945597 11.087717 3.936784
1 4.719728 -0.038739 6.603128
1 3.729143 -0.195018 7.322014
1 3.902330 0.902565 7.309970
2 4.202552 0.757644 9.653005
1 4.376490 0.432008 11.001513
2 3.488151 -0.244498 -0.274324
1 3.478787 0.971516 2.460785
2 3.865172 -0.180143 2.656754
1 4.659153 0.149407 4.503026
2 3.764195 -0.357578 4.776272
1 3.815430 1.433495 6.336354
2 5.074020 1.766222 6.815013
2 4.363738 1.898451 7.967988
1 3.946980 2.531373 8.816945
1 3.422853 1.929987 9.826755
1 4.308240 -0.392371 1.008476
1 4.401101 0.650150 0.713989
1 4.409496 1.055689 1.698476
1 3.733550 1.203070 3.357089
2 3.040020 1.592780 5.568857
1 3.884400 2.672462 5.481433
1 4.416740 2.493266 6.569084
2 3.332250 2.127926 7.065356
1 4.063127 2.632571 10.748719
1 3.424945 1.272888 11.743713
1 3.496005 2.982612 1.194130
1 3.924072 2.263314 2.689207
2 4.640612 2.461103 3.705880
1 4.102444 3.707743 3.645563
1 3.638151 2.768348 4.033242
2 3.450021 3.524677 6.821710
1 3.991853 3.939869 8.067193
1 4.071949 3.269342 9.648631
2 5.163454 3.443410 9.611387
2 4.983676 4.530236 11.193415
1 4.064548 3.503334 0.473782
1 4.316358 3.274452 1.864269
1 3.931977 4.933978 3.577177
2 3.013140 4.182652 3.829207
1 4.203750 3.823233 5.176008
2 3.988199 4.369011 6.202196
1 4.082360 6.214101 7.573259
2 4.230337 4.711850 9.003125
2 3.308233 4.652568 9.742443
1 3.248626 5.732688 11.444246
1 3.853475 4.797690 0.382785
1 3.777771 4.095875 2.720804
1 3.176063 5.759273 2.102590
1 4.563261 6.802320 4.170113
2 3.804793 5.626105 4.453357
2 5.492744 7.106481 6.645854
1 5.037578 6.030518 7.220385
2 4.716456 6.139968 8.924559
2 4.071536 6.241959 10.265261
2 4.278914 6.973935 11.801869
1 6.080512 4.848308 0.682832
2 5.838759 5.989365 2.312738
1 5.034798 5.732282 3.682542
1 4.545292 6.171992 5.113337
1 6.040427 5.305533 5.679688
1 4.693355 7.966902 6.145032
1 4.527792 7.061575 6.982645
1 5.681400 7.499985 8.380181
1 4.696480 7.318145 10.271176
1 5.401983 8.242744 11.005488
1 4.966854 6.584515 1.700029
1 5.895215 7.089941 1.711034
1 5.048724 6.806484 3.256733
1 5.847124 6.972801 4.123177
1 5.578824 7.224124 5.141452
1 4.633042 7.504732 4.915381
1 4.577157 8.977920 6.653402
2 5.030364 7.967978 7.126682
1 4.778291 8.441207 10.172013
1 4.924652 8.951350 11.423380
1 6.255424 6.343252 0.501047
1 5.270600 8.903320 1.186489
1 5.131968 9.050592 2.447670
1 5.413697 7.928213 4.162398
1 5.056616 8.881333 4.186001
2 6.434109 9.970517 5.166346
1 5.110674 9.562546 7.628325
1 6.078085 8.687273 8.226639
1 5.153169 9.212603 9.341497
2 4.469919 10.788239 9.815013
1 4.356199 7.893058 -0.268140
1 4.980452 10.522186 1.833365
1 6.158499 9.511615 3.121965
1 5.331101 10.026819 3.806860
1 5.561426 9.378150 5.193689
1 5.208576 9.998341 6.221246
1 4.409177 10.197480 7.135222
1 5.080053 11.462959 9.064676
2 4.468954 9.770818 10.850656
1 5.486541 10.350022 10.605261
2 5.539503 11.199551 0.361788
2 5.273875 11.504561 1.345226
1 4.640134 10.278481 2.786505
1 5.220545 11.178805 3.735089
2 4.132333 10.441000 5.786018
1 5.284586 0.513954 5.413164
2 5.509912 -0.457271 7.060935
1 4.847113 -0.204871 8.117076
1 3.390893 1.313557 9.112820
2 4.380582 1.716562 10.515922
1 3.596823 0.967452 -0.631310
1 6.494981 0.536586 0.827595
1 5.073480 0.326169 2.556053
1 5.155870 1.001981 3.441908
2 5.351833 -0.680697 4.776185
2 4.633375 1.763905 5.482607
1 5.711880 0.859254 6.358778
2 4.381228 0.972740 8.519009
1 4.605604 1.730476 9.279697
1 5.168847 2.027139 11.036318
1 3.998794 2.089800 0.319671
2 5.025916 2.271246 1.660572
1 5.488448 2.186279 4.430474
2 3.711370 1.873202 4.721590
1 5.754547 3.163363 4.657359
1 5.171213 2.820656 5.576017
1 4.271665 2.955404 7.545608
1 5.615660 1.060309 8.730664
1 4.613113 3.381041 8.682000
1 5.231423 2.396061 10.100320
2 5.106125 1.575273 0.732414
1 5.141807 2.939170 0.598472
2 4.867124 1.696531 2.616006
1 5.374502 3.445698 3.727395
1 4.743638 2.944170 4.729512
1 5.520903 3.819544 7.245387
1 4.368512 4.092698 7.193424
1 5.391651 5.280199 9.040414
1 5.255351 4.397174 10.115527
2 4.893824 3.359590 10.870536
1 5.089064 4.076894 0.916604
1 4.713833 3.101251 2.870724
1 4.846699 4.565074 1.968871
1 4.907495 4.205964 2.852661
1 5.150818 4.067238 4.516898
1 5.028062 4.316957 5.581017
2 4.300325 5.926671 6.280507
1 6.495264 5.671799 8.121341
1 3.874162 5.611704 8.357062
2 5.117585 5.688418 10.142980
1 4.372796 5.748723 0.214992
1 4.565317 5.060667 1.008211
1 4.099652 5.129251 1.963025
1 5.229198 5.186146 2.646248
1 4.127139 4.514521 4.463513
