1000
Lattice="21.54434690031883 0.0 0.0 0.0 21.54434690031883 0.0 0.0 0.0 21.54434690031883" Properties=:species:S:1:pos:R:3 Time=1000
2 12.859209 10.334521 13.541657
1 10.892400 12.196916 11.931204
1 11.668086 13.242034 16.122396
1 10.209829 10.823716 21.483176
1 11.871050 10.124518 20.868284
1 11.434150 12.469621 1.087930
1 10.006489 10.893463 3.169750
2 11.534562 13.278855 6.840189
1 13.555423 12.591515 7.963104
1 11.721357 9.975877 11.703939
1 11.266400 16.479407 12.714383
1 10.414775 15.481814 14.279744
2 10.734936 14.630422 15.208481
2 10.733886 16.205732 18.467490
2 11.383002 12.906981 20.808156
1 11.937216 13.702441 -1.438885
2 11.170221 14.417036 4.084753
1 8.601211 14.343613 4.979764
1 12.985489 14.025273 7.520639
1 10.983184 13.702486 7.954689
2 8.319441 15.374601 12.294472
1 11.756283 14.945861 14.136629
1 9.773629 15.240580 16.412748
1 11.246286 15.865187 17.166613
1 11.408907 13.832413 18.119743
2 8.714123 15.823751 -0.808668
2 12.595289 15.024245 3.570058
1 13.428111 16.324988 5.792443
1 11.383251 17.759383 6.747873
2 13.222095 18.104154 9.810775
1 12.078529 18.172699 10.861692
1 12.096178 17.481575 13.104231
1 11.058263 17.072641 16.426261
2 11.991446 18.241511 18.389982
1 14.309710 17.667729 19.978092
2 10.575219 20.219239 0.926743
1 10.311509 18.430537 4.439379
2 12.140280 17.691550 4.855820
2 10.463146 17.639820 8.387781
2 11.112436 16.987949 7.540467
1 13.735886 22.464924 12.143046
1 9.783094 21.001123 14.805880
2 12.268207 20.565728 16.162667
2 10.168774 22.279164 20.404618
1 9.984001 19.101592 21.750337
1 10.599363 20.107205 -0.190243
1 12.010614 22.030421 0.537332
1 13.678911 19.970574 3.891599
1 10.886383 19.812354 8.784881
1 11.715183 20.298109 9.308648
2 10.361726 1.875397 9.863703
2 11.217474 1.298496 16.187490
1 11.462405 -0.376206 15.011280
1 11.484542 0.470445 16.884729
2 13.294687 2.493955 21.181866
1 12.610039 -1.383585 -0.555093
1 12.588916 0.150443 5.359066
2 12.731574 -1.724756 2.222947
1 14.226659 1.896214 9.534950
1 9.169345 0.489769 10.666343
1 12.235187 3.635402 9.969203
1 10.819280 7.059976 15.650108
1 11.191924 4.586980 16.780845
2 12.473480 5.995849 19.598038
2 10.740012 1.655745 20.611465
1 11.985052 3.781781 -0.150500
1 12.295806 3.710549 3.438345
1 9.430881 3.845210 4.240162
1 13.826418 1.821271 6.613521
1 12.090492 4.132317 9.030684
1 13.721481 5.885896 12.422827
1 9.761484 6.584435 16.147020
2 9.383880 6.495702 14.959574
1 9.903592 6.526361 20.900715
1 13.183489 4.339779 20.910573
1 12.925833 5.690465 0.161171
1 12.758963 9.331267 2.120781
1 11.572921 6.206197 7.063643
1 11.525397 3.725515 7.310767
1 13.317960 6.607173 10.310037
1 11.911886 7.846252 13.267786
2 9.849994 7.941902 16.247551
1 10.171700 9.548920 14.509219
1 10.013941 7.798178 18.422781
1 12.906505 8.024611 19.376277
2 11.925991 8.479357 0.768953
1 10.394825 6.624533 3.508984
1 10.349087 6.512185 4.859274
1 11.582596 8.073725 7.867347
1 13.715888 7.169798 7.620201
1 12.006815 6.675219 12.504578
1 14.020224 10.211757 13.220154
2 12.128183 9.733479 16.638639
1 12.502875 10.758772 16.624006
2 12.629295 8.062801 20.676127
1 12.439049 10.950286 -1.446447
2 13.854404 10.531634 3.460030
1 11.328471 10.432027 5.823150
1 10.789957 9.938551 8.632269
1 12.463630 9.704538 10.352160
1 13.242306 11.026546 10.872689
1 13.062587 12.146234 14.324076
1 12.433300 13.552036 16.899711
1 13.640652 11.347792 17.233166
1 14.648440 10.344631 19.686456
1 13.270130 11.347614 0.093349
1 12.877442 10.138394 1.228253
1 11.274806 8.133006 4.345627
1 15.628949 8.421340 9.850784
2 11.779052 11.748871 9.176561
2 14.749269 14.503203 11.424381
1 14.945061 14.833098 14.000311
1 15.059352 12.813874 17.398944
2 18.711023 12.322410 18.646501
1 15.053294 13.647331 18.978785
1 15.269118 11.286758 1.709098
2 13.020050 11.545765 5.193591
1 12.599949 12.409224 4.142676
2 16.342244 13.296917 8.111100
1 14.492958 15.007365 10.298914
2 15.786549 16.820558 11.373973
2 13.363929 14.972489 14.056589
1 13.428733 14.193771 17.779424
1 14.344280 15.712776 17.756043
2 16.946938 16.145878 21.574284
2 14.600012 15.310108 0.586362
1 14.320312 17.642048 3.314484
1 15.108621 15.346874 7.508419
1 15.271112 14.345737 8.108004
1 12.976197 17.301725 9.062983
1 14.474549 17.563317 11.070603
1 14.129365 16.456090 10.380362
1 14.764417 16.744268 15.486904
1 15.132148 19.577156 18.467046
2 15.173516 17.515272 20.728808
1 15.475781 20.378049 3.024402
1 13.182399 18.295350 3.213334
1 14.150557 19.707141 6.033720
1 14.502100 17.023847 8.843253
1 15.650010 18.487814 11.334677
1 15.478231 20.828571 11.305917
1 13.483011 21.039341 15.068709
1 11.731996 20.078755 13.632495
1 12.585941 19.554512 18.342901
1 14.326847 19.847612 20.665671
1 14.439936 20.959807 0.805255
1 16.136060 19.695149 4.036795
1 14.818760 21.151406 5.973576
1 12.085000 19.240019 9.963614
1 14.368415 22.059629 9.120063
1 15.206677 1.050843 11.848755
1 14.793743 2.067951 14.502511
1 14.572876 2.282253 15.697549
1 16.182430 2.354094 17.187317
2 14.613721 0.787453 19.157607
2 14.236550 1.320000 3.146301
1 14.241296 -2.450359 3.654695
1 16.265074 2.656654 3.297698
1 15.010523 -0.941428 7.900701
1 10.678710 0.177715 8.453442
2 14.109474 2.911554 9.976052
1 11.429927 3.267310 15.719126
1 13.231584 4.503647 15.691826
1 14.324687 2.432347 18.330029
1 13.682837 3.272115 19.917880
1 14.890842 6.210650 0.105323
1 13.408363 2.654916 3.921448
1 15.497352 3.237076 5.757640
2 15.813121 1.557441 7.961600
2 15.964478 3.414141 9.443298
1 16.127802 4.634251 11.527016
1 14.344961 4.843932 12.622345
1 14.225735 3.799367 12.310904
1 12.589890 4.315697 19.885192
1 14.714693 5.220125 20.637120
1 12.387347 5.658721 -0.852549
1 15.176361 6.740040 3.085646
2 13.620522 5.558976 6.530811
2 15.261101 7.344699 5.132206
1 13.277992 8.160837 9.365801
1 12.889704 6.181056 14.285252
1 11.799827 7.078514 14.861949
1 14.692053 7.895684 17.773902
2 13.224132 6.992721 18.231847
2 15.066881 7.409543 18.680143
1 14.963983 9.395573 -0.848000
1 12.734617 9.258393 5.562878
1 12.745819 6.855114 3.950755
2 14.416354 7.646747 6.478559
1 15.620355 6.295661 10.423650
1 15.299018 7.290039 8.764639
1 15.001407 10.398227 14.290646
1 12.734086 11.950060 16.953211
1 14.610249 9.960094 16.534424
2 15.464149 10.228696 21.162050
1 12.126152 8.988267 2.996018
2 14.135198 9.501347 2.331393
1 13.676797 7.975638 5.259751
1 12.483898 11.809235 6.992354
1 13.023932 13.309687 8.980179
2 15.197872 10.624035 10.734759
1 14.363576 13.463175 14.812772
1 17.559879 10.840452 15.062292
2 16.226288 10.758586 19.275961
1 14.520537 12.402048 18.199685
1 18.913980 14.296203 2.067603
1 17.251447 10.191319 4.294979
2 18.376990 10.959637 1.510264
2 15.761649 12.897389 9.712404
1 17.746672 12.783188 9.031962
1 16.259977 14.260289 11.389228
1 17.235197 14.229406 13.892894
1 12.888459 13.129560 14.995104
2 15.121552 14.318143 17.901605
2 15.864628 12.542434 19.342762
1 15.557544 14.662053 0.900021
1 14.816032 15.689553 5.779629
1 16.844470 17.227494 4.396436
2 15.942272 14.475105 8.979892
1 13.766919 13.599043 11.286620
1 16.971367 18.353438 15.065829
2 14.240798 14.603980 14.846155
2 17.257264 17.591577 17.058871
2 17.333946 15.241478 17.670846
1 17.799242 15.172819 21.523631
1 15.123783 18.270494 1.539984
2 17.993317 15.538282 2.829094
1 15.973105 17.033122 6.510697
1 13.896564 13.521552 7.221594
1 16.782834 15.591148 6.843086
1 16.755338 17.589158 12.546834
1 18.823415 20.648238 14.756693
1 18.013135 16.797601 16.384906
1 17.028644 19.523910 17.712437
1 13.514963 19.104267 21.742419
1 16.765327 18.340894 1.830849
2 15.254859 18.341167 3.268134
1 14.889811 18.105160 4.301641
1 16.770670 18.184098 6.121363
2 18.039784 18.344463 8.743283
1 16.015870 22.035910 13.368674
1 14.754406 22.756693 15.394399
1 15.912356 20.762893 16.549883
1 17.100502 21.143179 17.629249
1 13.997671 23.256282 19.206252
2 14.517199 19.761993 0.377200
1 16.005238 18.610741 4.068004
1 17.042322 19.052341 4.515704
1 16.517489 22.629078 6.517969
2 19.306959 21.202903 11.278941
1 15.755841 2.001449 11.776782
1 16.615122 1.633029 14.165442
1 16.004196 1.658928 16.168251
1 17.453825 1.091266 19.465064
1 15.757085 -0.854499 21.604416
2 15.319862 3.167080 3.705757
2 16.341183 1.049844 3.860957
2 16.348411 -0.353715 7.682800
1 17.123994 -0.128007 8.611072
1 17.946592 2.337749 11.060122
1 15.081092 3.296906 14.725701
1 15.023586 3.853756 11.346587
1 16.525505 3.610483 17.960385
1 15.624901 1.590388 19.593686
1 14.332699 3.026052 20.851298
1 17.010280 2.770200 -1.263267
1 16.394060 3.626237 3.783303
1 18.629945 0.779497 5.723482
1 16.594009 3.401551 8.244935
2 14.779922 3.844932 9.357559
1 17.411684 5.363367 12.233252
2 15.907123 4.857255 13.982189
2 16.501693 6.352053 18.074317
1 16.877042 8.241613 17.623088
1 14.847013 5.239007 19.415266
1 14.553435 5.001270 2.065006
1 16.736893 6.958181 1.790603
1 16.440767 4.071044 6.298632
1 14.237987 6.456276 6.640247
2 14.599469 4.250292 10.507079
1 17.199852 6.752948 9.670015
2 17.542982 6.536033 15.359651
2 16.920290 7.489467 14.378572
1 17.523000 8.376195 16.798335
2 15.201988 9.325075 19.542447
2 14.798282 8.917934 1.194981
2 14.435083 7.901825 3.045058
1 15.957693 6.581012 5.078989
2 16.980305 8.783912 8.856206
1 15.341143 6.130534 8.466946
1 15.629518 10.275219 11.972887
1 15.504939 11.429713 14.083418
2 15.982938 9.647801 15.828536
1 15.679051 8.735422 17.142689
1 15.831791 8.349998 18.303673
1 16.472589 11.610138 2.676805
1 18.206051 10.055649 5.499516
2 14.281499 8.638286 4.159051
1 18.574107 8.906043 7.710314
1 14.665423 8.666614 8.134723
1 20.607631 12.111625 12.103896
1 18.701125 12.719434 16.043026
2 17.233066 11.439366 18.490719
1 20.062694 15.413521 17.540680
1 17.784044 10.949512 19.741055
1 19.981083 8.816630 1.927486
2 16.594495 11.883242 3.957019
1 17.081710 12.357978 5.634209
2 19.028226 10.136860 6.397642
1 20.251652 11.569031 8.964989
1 17.482745 14.356687 11.369440
2 17.586459 10.386970 10.800897
1 16.615963 14.710149 16.672977
1 19.384207 11.696119 17.983591
1 20.173532 15.474074 19.276695
1 19.989508 15.928491 2.567121
2 19.515174 13.862543 3.354159
1 18.896668 12.414723 3.453510
1 19.665670 13.198609 6.452356
1 20.277449 12.712034 10.030874
1 21.891119 16.386712 15.085309
1 17.172684 15.217851 14.318356
1 19.535443 14.380480 15.147396
1 17.713004 17.093375 18.986392
1 18.220478 18.527442 20.212926
1 19.750172 18.209938 1.399445
1 20.290645 15.482897 3.506137
1 19.342702 17.219477 6.080878
1 14.530323 12.989369 4.808529
2 17.015068 17.855673 9.840934
1 19.588511 19.031252 8.687892
1 20.911484 18.064547 11.837766
2 19.498932 19.683037 17.724458
2 19.163110 17.542072 19.223158
1 13.740442 18.218011 20.684572
2 17.658645 17.327013 0.900187
2 16.503065 17.937088 2.849958
1 16.442895 17.396328 5.411320
1 20.715277 19.061101 8.733172
2 18.358764 20.605287 11.702812
1 19.713560 18.447730 10.906082
2 17.924052 23.254100 14.395978
1 18.415737 20.764775 17.899009
1 16.716998 20.949319 15.907893
1 17.403597 19.318980 21.785191
2 16.307146 18.558752 0.692426
1 17.266808 20.065278 3.886020
1 18.579913 23.148440 4.854203
1 18.287286 20.888388 8.749594
2 20.341362 19.484670 10.693606
1 18.602195 3.003771 9.005922
1 16.452231 4.310267 13.259855
2 19.419591 0.140865 16.799967
1 17.453708 1.378639 15.740136
1 20.663912 -0.356641 20.550748
2 21.213803 0.392999 0.842150
2 18.928062 0.635833 4.581610
1 16.419800 2.173539 4.393878
1 18.819833 2.349306 6.331225
1 13.146957 0.424246 11.462975
1 17.748333 4.548814 13.253344
1 17.373501 3.445246 11.273675
1 17.171472 2.932708 16.163341
1 16.731771 1.893982 19.880494
1 18.009396 1.855276 20.256930
2 21.281233 0.645283 -0.746352
1 19.751948 3.041078 5.210698
1 19.977115 2.056046 4.436532
1 20.502739 4.411621 8.002383
1 19.147262 2.157363 12.030066
1 18.699022 4.027224 10.220664
1 18.113332 3.738322 14.161885
1 17.049589 4.003638 16.962253
1 18.430930 3.710370 16.487478
1 20.325849 3.424786 21.514703
1 20.021726 6.550639 0.251667
1 17.391263 3.359260 3.497526
2 16.949895 4.806243 5.370900
2 17.458518 4.519037 8.282268
1 19.544371 6.277865 10.116508
1 19.826923 8.976534 11.693304
2 18.551824 7.116619 13.052284
1 18.791721 6.321273 16.120991
1 17.956750 8.218200 18.663710
1 16.470020 8.589564 19.097283
1 17.980768 8.970331 -0.565009
1 17.447247 6.164629 4.272341
1 19.392163 6.936083 5.540691
2 15.812266 8.346716 8.744958
1 16.059334 5.575043 11.170175
1 19.002881 10.189006 12.279068
1 19.548005 10.269133 14.075301
2 18.757531 10.204138 16.702761
1 18.750710 9.438016 19.557254
1 21.491629 11.173837 23.584340
2 16.994459 9.083371 4.590574
2 19.987443 10.036533 4.005895
1 17.801693 10.097541 6.657579
1 17.998124 7.890215 10.091463
1 18.358697 9.052928 9.052073
1 18.347743 12.104276 11.620072
1 19.571504 12.408638 13.736456
1 22.292496 12.559205 16.609971
2 18.400236 10.449671 18.924164
1 20.518206 12.354964 21.746677
1 17.664283 12.482288 2.431715
2 21.381454 11.345129 3.787003
1 22.292998 10.832217 5.720657
2 19.613620 13.159721 7.838715
1 21.236782 12.169563 10.602528
2 20.615314 13.641046 10.482147
2 21.520436 13.868050 13.973630
2 21.524945 14.578053 16.028940
2 21.321470 10.925543 19.599909
1 17.298887 16.067478 22.780263
1 19.600988 11.829665 0.720413
1 20.664516 14.536424 2.657255
1 20.151648 13.002459 5.410909
1 22.007339 13.886685 8.263572
2 20.717669 14.934965 9.886788
2 21.556024 15.307310 11.000975
1 21.457095 15.892728 13.246053
1 21.430047 16.238842 16.924049
1 18.803163 16.519179 18.900388
2 18.331711 17.046557 19.890194
1 21.678496 16.391540 3.769110
1 21.187527 19.734723 3.342627
1 20.464334 15.431606 6.253638
1 20.794496 16.569559 7.404253
2 20.739076 16.630884 8.444771
1 22.106154 18.855076 12.076757
1 20.937831 17.705087 13.423880
1 19.728755 15.384005 14.463141
2 18.572036 17.992050 18.480477
1 19.958805 19.380109 21.163560
1 20.044729 19.598126 -1.347584
1 22.328391 15.247523 3.478266
1 21.600360 19.558172 6.182418
1 19.281805 19.081993 9.811199
1 23.021358 17.330921 11.944670
1 22.029439 21.289788 11.838558
1 20.686502 22.306212 14.325817
1 19.163306 22.704479 16.131799
1 19.442781 20.364696 19.376513
1 21.334108 19.239183 19.900853
1 16.489935 23.432603 0.137200
2 21.993085 23.877176 2.319244
1 22.028967 18.546326 6.431090
1 19.468068 23.025700 9.245277
1 19.014803 20.300856 7.588375
2 20.158017 2.689635 14.341494
2 20.152937 1.737781 12.498255
1 19.948319 1.245892 15.520066
1 19.899814 1.202568 16.887974
1 20.401398 1.537112 20.374969
2 23.134423 1.490202 3.813412
1 19.841838 -1.163865 2.347039
1 19.823048 1.620657 7.061942
1 20.445296 2.192160 8.442207
1 20.374909 -0.432169 7.864839
1 20.279611 4.817132 10.796627
1 21.275531 4.069093 11.351185
2 19.157284 1.935280 17.217692
1 22.815407 3.671560 17.619733
1 21.348845 4.452298 21.321814
1 19.078249 1.438668 -1.409561
2 20.940039 5.153692 4.504724
1 19.023429 4.756632 5.537189
1 18.866597 6.179235 9.059252
1 21.309920 5.335789 12.075579
1 19.535524 5.724066 13.178059
1 19.735233 5.822669 15.310445
1 23.459251 4.926429 15.748200
1 20.308851 5.674327 18.348378
1 22.155847 5.067124 17.661019
1 22.319307 4.594743 2.286685
1 19.238611 6.293643 4.307462
1 19.337706 5.685008 5.376648
2 22.463050 5.934928 8.758208
1 19.969484 5.914425 9.141850
2 19.339734 7.840596 11.953573
1 23.001292 7.958794 15.573634
1 21.295249 4.618670 18.700878
1 18.842165 9.013280 17.743423
2 21.371533 8.790826 21.440731
2 20.950482 9.138737 0.990006
1 19.838745 7.234933 4.707992
1 20.858542 10.090541 4.876061
1 18.595427 8.377569 6.804636
2 20.947972 9.212079 9.621131
1 20.897490 11.863314 7.911004
1 21.826191 10.210465 14.273645
1 20.139916 11.813041 15.821921
2 19.510579 10.600785 18.155132
1 20.492440 10.083155 20.521054
1 20.281653 7.782807 0.811712
1 21.621676 8.880725 2.052835
2 21.828097 10.021046 3.928699
1 22.628473 8.533706 8.981912
2 21.844651 10.241567 9.432103
1 0.320468 14.132368 12.851894
1 0.258473 12.051514 12.976285
1 2.538805 11.784222 14.539538
1 0.030385 11.243543 16.469974
1 -0.205050 10.815513 17.489552
1 -0.291269 13.089587 1.881704
2 1.216386 11.340722 3.086840
2 0.884071 10.946150 4.397716
1 -0.939588 11.620038 6.678834
1 0.071482 14.050288 10.010587
1 0.089614 13.868626 11.773515
1 4.148052 13.865288 14.751142
1 1.664932 15.476329 17.578515
1 1.651258 13.033152 18.543869
1 3.847127 11.250343 18.553149
2 2.245100 12.972991 0.702061
1 -1.448106 12.898502 2.779579
2 1.740703 15.121551 4.518740
1 -0.389199 13.037623 5.897176
1 -0.290561 13.068620 9.427028
1 1.226056 14.017544 11.209816
1 1.689780 16.212452 13.312810
1 1.201594 17.166174 16.873358
1 2.120559 15.309831 18.518900
1 0.816760 17.210612 21.566964
1 1.419951 16.004489 0.373687
1 1.247706 16.171569 3.595444
1 2.083584 19.352047 2.032419
1 0.298155 17.509570 7.970617
2 1.191379 18.209764 8.644968
1 2.047741 19.490923 13.917065
1 0.267147 17.838298 12.393353
1 -0.427608 16.221611 14.314606
2 1.156881 19.542253 16.168499
2 2.267652 18.804187 21.991845
1 -0.716234 16.567173 -2.185650
1 1.473210 18.294840 4.732483
1 0.015016 18.950891 5.388597
1 2.366720 18.150488 7.141851
1 1.830042 18.337933 6.326686
2 0.977858 21.003283 10.786881
1 1.038667 19.929949 13.646025
2 0.523308 20.630948 16.303157
2 -1.472491 20.130570 18.569466
1 1.110663 23.686122 21.665772
1 1.144896 20.133512 0.848585
1 1.229003 24.538512 4.018274
1 1.379650 22.072705 5.919869
2 1.934860 19.363086 9.007416
1 2.707637 19.553772 10.278035
1 1.878541 1.027354 11.281275
1 -0.546874 0.935888 15.804498
1 0.302218 1.260597 16.475691
1 3.174158 3.952525 19.134695
2 3.506024 0.643020 23.084678
1 -0.117119 1.218239 2.500544
1 1.057108 0.387182 2.311458
1 -0.645546 2.471788 4.768772
2 3.092005 -0.783394 6.944124
2 0.566631 0.417094 8.088858
1 3.767092 3.828709 13.005556
1 0.322416 5.209167 14.710749
1 0.103309 1.521789 13.440619
1 1.378773 1.882407 18.056425
1 -0.081662 3.596497 19.785922
1 2.364909 2.845990 2.541118
1 0.166508 3.473900 4.350642
2 1.624855 0.198085 4.347491
1 0.654633 4.646413 8.836658
1 0.064107 3.963638 8.383156
1 3.170569 5.820226 13.173483
2 -0.681344 3.292657 13.240108
2 0.195782 6.115524 17.946340
1 1.174406 3.245940 16.116537
2 1.433657 5.188998 19.823946
1 1.283663 7.867306 2.246883
1 0.466796 5.103695 0.430304
2 0.517417 5.301626 3.123451
1 1.560691 6.065521 6.813917
2 3.017924 7.219326 6.845958
1 2.887193 9.447109 13.958461
1 -0.971457 9.208003 15.832057
1 0.058516 9.475342 15.020441
1 2.108347 5.929476 19.094221
1 0.061497 10.188400 22.655807
1 1.646965 8.096796 0.228446
2 3.753942 5.230932 2.323598
1 -0.505279 6.286409 5.292364
2 0.137733 6.939761 7.468557
1 0.995991 7.754926 10.372279
2 0.857253 7.761449 12.046317
1 2.515045 9.803337 13.076825
1 1.383310 12.865837 15.557425
1 -0.715803 9.746322 17.108557
1 -0.411149 8.892459 18.823442
2 -0.541342 9.559885 3.006819
2 2.760494 11.316833 2.885722
1 -0.161963 8.882645 4.026262
1 2.082191 9.399271 7.430939
2 0.586740 11.257891 7.966120
1 1.082382 13.126629 13.359322
1 2.919035 11.168471 13.042259
1 1.280082 11.494383 16.908909
1 3.830314 12.792374 15.641143
1 4.227814 12.502109 19.334745
1 1.917750 12.477444 -0.422682
1 1.112233 10.273628 3.105375
2 4.731171 11.970659 6.084083
2 0.927239 12.644335 10.732526
1 2.381869 9.513369 8.720899
1 1.999433 13.028824 11.666984
1 2.675549 13.285564 15.199508
2 6.144085 11.596288 16.016699
1 6.016351 15.276058 17.432984
1 1.726864 14.353906 15.833103
1 2.650003 13.158814 3.480926
1 4.749259 12.209737 4.997449
1 4.682911 13.611164 6.471197
1 1.881859 13.888370 5.639325
1 0.822682 14.826955 10.111266
1 5.097571 16.602930 14.848736
1 4.565582 17.259011 14.385878
1 2.316858 16.467916 17.706968
1 4.040368 15.099397 19.032222
1 3.679702 16.983092 23.584951
1 3.201325 14.237384 0.084761
1 5.253164 16.225100 2.711565
1 4.269439 15.594568 7.864587
1 7.794858 17.543113 8.107964
2 1.748910 15.533459 10.212703
1 3.551271 15.646318 11.939653
1 3.187788 18.076688 13.115607
2 1.803463 17.372910 15.105254
1 3.772376 16.035848 19.379643
1 4.556447 19.082340 20.879050
1 1.970428 18.145262 1.899020
1 4.547445 19.150670 2.872352
1 4.461506 18.754426 4.219249
1 5.860989 16.195026 6.700604
1 0.587804 17.458608 9.246616
1 2.755974 20.733227 14.815007
1 2.030418 21.502163 12.228480
1 0.786083 23.210575 14.916599
1 3.575694 21.456457 16.454125
2 2.816418 18.790722 20.925445
2 0.833995 21.032387 -1.561139
1 2.423506 20.077403 3.872553
1 2.594818 17.773649 5.543486
1 1.598300 23.186143 8.331557
2 5.462860 20.738559 6.859136
2 1.973570 -0.172306 10.982830
1 3.439418 2.131553 15.095356
1 2.181024 0.877279 17.823959
1 0.354727 0.270717 16.953279
1 1.532480 -0.054214 16.643494
1 2.057832 3.673856 -0.163400
1 1.957473 -1.339936 2.923947
1 2.289508 -0.649951 6.060484
1 3.310228 2.264702 5.586622
1 3.128121 0.637067 10.857424
1 1.295471 1.867857 6.700155
2 2.444720 2.364902 15.338918
2 6.678819 4.114783 16.419600
1 5.091412 4.507886 19.481732
1 5.652923 5.050294 20.331175
1 4.550149 3.633609 2.208386
1 3.089985 2.279629 4.210561
1 4.739587 5.965883 4.108722
2 2.406810 1.046353 5.705616
1 4.983413 5.585904 10.570670
2 4.167700 1.018802 10.459960
1 2.843758 6.030655 14.696761
2 4.943994 5.998661 14.758634
1 2.966653 4.945769 18.270526
2 4.267572 4.456132 21.299696
1 6.399913 6.071432 -0.832534
2 5.778825 4.389311 4.747724
1 4.126086 4.753706 4.596896
1 3.906999 3.233511 8.103945
1 3.188222 4.422069 8.564571
2 3.253228 6.730710 11.063649
1 3.102549 7.382565 13.818102
1 2.346700 5.894441 16.181765
1 1.295728 5.986395 16.720564
2 2.229452 9.002522 21.138424
1 3.389037 7.383520 1.088062
1 1.249489 9.301352 0.083596
1 3.589790 6.460105 5.296298
1 3.699049 6.232569 9.209965
1 3.949409 5.853611 10.477245
2 2.176346 11.897676 11.730378
2 2.866809 10.289599 14.536012
1 1.722851 10.990159 14.120866
2 2.504158 9.377290 14.984235
1 2.402140 11.764698 22.278845
1 3.181512 10.851013 0.326863
1 4.345164 10.482930 2.869993
1 3.089263 9.856918 4.995183
1 2.215141 11.184541 5.620233
1 2.296146 8.696684 11.775443
1 6.565137 10.590332 14.030985
1 1.958443 12.539519 13.694014
2 4.496337 12.022500 16.608190
1 5.887802 12.632129 18.892476
1 7.452267 13.345241 19.122528
1 2.894388 12.284090 1.966824
1 5.598513 12.572962 4.224670
2 5.908947 11.671993 5.777955
1 5.672555 12.482723 6.848615
1 6.546242 12.208768 7.853143
1 5.658523 13.716629 13.439121
1 5.053570 14.102993 15.532008
1 4.689344 15.238004 15.931945
1 5.103269 14.323283 16.980069
2 3.306368 14.112712 19.393345
1 5.457355 14.382300 1.900019
1 6.325997 13.874314 2.798245
1 6.545053 12.266804 3.693694
2 4.607802 14.918806 6.569730
2 4.686290 14.297164 10.893231
2 6.980285 17.733806 11.875998
1 2.721395 15.604533 12.900814
1 5.614919 17.279524 15.426529
1 5.033096 18.310561 17.162525
2 4.082645 18.284500 20.122186
1 6.016195 18.630770 2.333696
1 7.008762 16.587543 2.914123
1 4.302687 16.004759 6.082538
1 7.405134 16.761377 4.305239
1 6.622810 15.055882 9.943204
1 7.261702 16.356855 8.013034
1 4.721229 14.800769 14.778250
1 4.736738 17.022122 15.798519
2 7.379484 17.920381 15.922291
1 2.425319 14.882506 22.315026
1 4.902662 20.388944 1.648056
1 6.234908 18.301784 3.842053
1 5.261796 18.732881 3.649073
1 6.084874 14.002835 6.330504
1 5.430670 20.707972 8.963461
1 5.131587 21.576182 11.679598
1 4.306854 19.559595 15.137768
1 3.035763 19.035640 16.198825
1 7.096967 21.642632 19.053093
2 5.563757 19.494481 19.614928
1 5.944178 18.811708 0.790084
1 5.071557 23.126440 3.427714
1 4.692177 17.844266 7.801634
2 5.710240 19.748468 4.312052
1 3.519967 21.148598 9.648581
1 4.595562 0.632403 12.780294
2 5.380068 0.981889 13.560221
1 5.397945 0.171668 17.404043
1 6.733724 -0.923166 18.484077
2 6.562478 0.246868 17.805814
1 6.197619 1.132370 -1.795325
1 5.240513 0.214640 1.574602
1 5.236276 1.073234 6.942956
1 5.077272 0.485948 7.782278
1 4.354804 1.072597 9.324662
1 4.237493 4.399530 10.979425
1 6.738875 6.219074 12.551263
1 4.843680 4.438109 15.911024
1 6.435884 4.870988 17.900044
1 4.227860 5.367753 20.120536
1 3.946382 2.285101 2.564192
1 5.984979 1.676554 1.656027
1 6.290494 3.588334 5.322492
1 5.598529 4.614521 7.514674
1 7.729435 1.218266 9.380262
1 9.036980 5.968575 11.963989
1 4.625281 8.148719 13.316585
2 6.264269 6.958621 14.928910
1 4.882543 5.487214 17.833611
1 6.001546 3.304309 21.823264
1 6.993524 6.602519 -0.081790
1 5.133004 5.083323 3.623364
1 4.621107 6.912140 4.583661
1 6.226671 4.765480 6.280611
1 6.229568 4.787889 10.583153
1 4.979107 9.635162 12.218348
1 4.003240 8.024121 14.138093
1 6.117698 9.390299 14.746013
1 3.619884 8.181039 16.868653
2 5.389810 4.440728 21.337898
1 6.993414 8.022121 1.295807
2 6.013479 7.084173 1.525635
1 5.012945 8.488353 2.393887
1 6.614356 6.008826 8.231486
1 5.534512 6.281392 9.066807
2 6.915789 9.564984 11.956705
1 8.843181 9.740568 13.025526
1 3.392933 9.122782 13.114704
1 5.643829 7.293904 17.786988
2 8.033995 9.932476 21.828287
2 5.268242 9.655090 3.037066
1 3.293857 10.502262 2.174556
2 6.457892 7.807932 3.894216
1 3.472100 9.980621 9.242226
1 4.896189 9.613584 10.832045
1 6.506430 12.358006 8.973819
1 5.389166 12.709678 12.743482
1 5.403808 12.360557 15.566905
1 8.451639 9.514708 18.692236
2 6.589894 11.017816 21.008779
1 8.368979 11.233469 2.747045
1 7.558509 13.521857 2.901201
1 6.557249 13.131337 4.720655
1 5.629853 10.963202 8.861837
2 7.691699 12.355935 10.398126
1 8.039306 15.778891 8.658750
2 8.154024 13.276881 14.683781
2 5.919141 15.866136 15.152065
1 6.535207 16.975722 18.833312
1 7.915124 13.321404 20.111835
1 6.279059 12.937727 2.056973
2 6.882137 15.236803 3.025742
1 7.018845 14.283764 5.732671
2 7.172463 13.753353 6.722420
2 9.110448 15.061119 13.095625
1 7.349529 13.499393 10.729815
1 7.935880 15.591122 13.758106
2 7.038577 15.821722 14.325814
1 6.122558 15.503297 16.293651
2 10.268065 17.744035 20.233915
1 9.287977 16.829560 -0.169203
2 6.881524 14.145177 4.446493
1 7.356543 15.427796 3.887593
1 9.214841 16.467064 8.172158
2 9.590720 16.478401 11.008235
1 8.351492 19.761943 9.947564
1 6.645538 17.308747 13.569841
1 6.560589 18.237891 18.603808
2 8.753088 18.374711 16.255694
1 8.741300 18.191628 20.261943
1 10.460102 16.101457 0.035620
2 8.294021 18.233480 1.328407
1 7.867819 17.534180 6.263393
1 7.714020 19.184196 6.885265
1 8.339830 17.479502 12.293573
1 7.147323 18.471006 10.317854
1 7.020625 20.318910 14.577389
1 4.401787 18.608587 15.614144
1 7.952277 20.649072 18.926701
2 7.745269 20.341379 19.889590
1 8.600847 20.459906 2.993864
1 6.945483 20.015199 3.412238
1 6.401611 21.169733 2.868395
1 7.006847 20.017687 7.371347
2 6.737136 19.890144 9.705191
1 9.528262 1.779378 12.422907
1 9.154328 1.166769 14.726419
1 9.177151 0.147943 15.438180
1 9.789121 1.379878 18.549870
2 8.428416 1.244395 17.379735
2 9.540055 1.570712 -0.412907
1 6.190042 1.361057 5.923163
1 7.385014 2.283695 5.220724
1 7.419005 2.733816 7.179065
2 9.277393 0.334695 9.138320
1 7.540693 5.366556 12.581986
1 8.369644 3.885475 12.902394
2 7.672339 1.761880 13.030460
1 9.231695 3.784720 17.457001
2 6.771413 4.608311 19.822376
2 8.554206 1.048138 1.791607
1 5.465659 2.739929 1.610388
2 5.496142 3.396980 7.229134
1 4.796563 2.792137 5.940847
1 6.997095 3.658824 9.993331
2 7.731535 4.267415 11.903342
1 6.038363 5.653872 15.498536
1 6.416000 5.234656 16.526669
2 11.276678 2.669942 20.991053
1 6.397826 4.425133 20.931712
1 7.052430 4.413451 0.294210
1 5.641218 5.414723 4.531407
1 9.462148 4.829353 8.515400
1 7.456863 4.215015 7.756240
2 6.410342 7.316151 8.865710
1 6.040560 7.962633 13.214042
2 7.547325 7.204776 15.105264
2 9.963114 6.603402 17.194430
2 6.963532 5.788724 18.237584
1 6.704539 8.286480 21.911219
2 7.504073 7.531299 0.556756
1 7.043807 8.003299 2.718841
1 7.086067 8.535786 5.804351
1 7.252661 9.321043 6.659064
2 7.654673 7.039102 9.062038
1 5.773643 10.012389 13.718187
1 7.140271 9.603816 14.733829
1 7.792531 12.258283 14.875781
1 7.627157 10.738289 20.684670
1 8.110725 9.936569 23.007727
1 6.727230 10.360036 1.058939
1 5.324706 10.271422 6.308271
1 7.113220 11.863423 2.635369
1 7.754614 12.542295 7.470010
1 8.824053 9.363285 9.875209
2 11.621423 14.281925 13.347605
2 10.985326 12.765608 13.222919
1 10.406989 10.250495 16.937368
2 9.713210 10.128813 20.118713
1 10.599741 13.748934 21.441026
1 10.031742 11.540144 0.582535
1 13.023312 10.534758 4.719575
1 9.459708 10.149876 5.524206
1 7.578194 12.158629 9.015690
1 9.525232 11.177336 9.372063
1 9.994276 14.190769 10.518295
1 10.409301 12.833722 14.833487
1 9.841464 12.719697 16.522466
1 8.168970 14.310852 16.850871
1 7.632296 15.116703 19.704354
1 8.949743 11.171454 1.643381
2 11.018614 12.615729 3.641421
2 10.073123 13.609393 6.631113
2 9.743937 14.714264 7.848143
1 12.991689 14.441838 9.430486
1 9.257810 16.406399 9.950783
2 9.640050 16.218807 13.442026
1 7.956600 17.395209 15.117616
1 8.805306 17.176607 20.105493
1 8.393186 17.245542 21.048419
2 9.827280 12.620935 0.543420
2 10.753575 18.987780 1.381764
1 11.324032 18.516917 5.483358
2 8.951723 15.321612 11.059983
2 7.296830 15.952432 9.995688
1 10.184318 20.046523 9.637457
1 9.943180 18.477074 14.407521
1 12.543527 15.917343 15.600369
1 7.490094 17.013679 18.433465
1 6.632206 22.175647 20.747878
1 7.509693 20.252390 -0.613303
1 10.573129 19.195384 3.749483
1 12.225256 19.021716 8.053310
1 11.267576 18.995758 6.690450
1 9.818508 18.336152 9.954034
1 8.835397 23.622881 13.277100
1 9.500443 20.320015 15.619142
1 9.727288 21.479584 16.749293
1 11.051378 20.419846 18.268022
2 11.760811 19.749775 17.284219
1 9.107401 21.698971 0.214685
2 9.840457 19.476688 2.830019
1 9.102499 20.319897 4.140963
2 8.470792 20.767787 9.383104
1 9.542822 20.780870 9.816305
2 11.335241 1.386998 12.723507
1 10.686206 -1.231861 14.190960
1 10.866612 0.133672 15.669382
1 9.285401 2.312989 17.930202
1 9.314025 -1.361693 20.882435
2 8.330732 3.441332 0.198110
1 12.904726 1.079291 3.096402
1 8.952552 1.744458 5.529044
1 9.265612 0.986511 7.018996
1 7.935580 0.091755 8.727297
1 7.104179 1.958179 11.150152
2 9.630302 1.541276 11.300167
1 8.580429 5.160224 15.384816
1 8.789470 3.592588 20.710476
1 10.299975 3.849187 19.767819
1 8.854839 3.438356 1.502989
1 9.024303 2.506708 3.470583
2 9.136863 4.634228 6.312866
2 8.703570 4.892476 7.319595
1 9.460276 4.358662 9.720404
1 9.827154 5.628648 9.940915
1 10.259539 5.610014 14.998211
1 10.118505 4.319410 17.363182