1000
Lattice="11.856311014966872 0.0 0.0 0.0 11.856311014966872 0.0 0.0 0.0 11.856311014966872" Properties=:species:S:1:pos:R:3 Time=1000
2 6.738323 6.034777 7.013939
2 5.819249 6.072386 6.245146
2 6.290115 5.535517 8.452566
1 5.360619 7.079557 10.370255
2 6.764502 6.031754 11.555389
2 5.949234 7.522548 0.639234
2 6.497117 6.402902 1.707311
2 5.664081 7.388203 3.511613
2 7.295484 5.923925 3.435742
1 6.739886 5.561252 6.049542
2 6.536765 8.124222 7.409544
2 7.032336 7.735524 8.789199
2 5.433567 7.733053 7.518380
2 7.484978 9.943017 10.130830
2 5.986578 7.344144 11.335483
2 7.109083 8.125178 -0.249708
1 6.395183 7.869449 1.566497
2 5.169011 8.452814 3.548511
2 7.127319 7.154280 5.057650
1 6.267713 7.111113 5.808645
1 5.165663 9.145732 6.448025
2 6.126770 8.625464 8.369915
1 7.045574 9.083068 7.872703
2 6.520200 8.353297 9.433873
2 6.686243 8.255676 10.570753
2 5.957039 8.647317 0.040080
2 6.291003 8.303818 3.157370
1 7.414415 8.425396 3.114574
2 6.855553 9.014424 3.820831
2 7.144738 10.554486 4.788964
1 7.435501 10.898746 5.801939
2 6.964770 10.713895 6.806356
2 7.140675 9.367216 8.984577
2 6.521784 10.464426 9.628311
1 7.281812 9.128690 10.737931
2 5.833921 10.599994 0.803617
1 6.012674 11.144602 1.652693
1 6.969467 10.242629 2.534567
1 7.146169 10.217201 3.535915
1 5.818818 8.934947 4.165400
2 7.238850 12.221777 7.222030
2 6.785929 10.431131 8.644803
1 7.168960 12.313607 9.206643
2 6.786649 12.353642 10.279707
2 6.028046 10.640683 10.691524
2 6.975205 10.266234 -0.520589
1 5.887893 12.206810 0.908772
2 7.032864 11.223543 2.002318
2 5.061506 12.271573 5.221638
2 6.305524 11.596981 6.518589
2 6.060900 1.566932 5.662736
2 6.357436 -0.484322 7.847572
2 6.265425 0.711648 7.875145
2 6.373985 1.437210 9.432699
2 6.516414 -0.237299 11.287776
2 6.208084 0.884300 -0.042835
1 7.346351 -0.106629 3.024870
1 8.442902 0.343270 2.642244
2 7.469069 0.945651 4.891348
2 5.414089 -0.598050 5.713513
2 7.426742 0.431888 5.961640
2 5.526296 1.918832 8.760978
1 6.674530 2.517523 9.859171
1 7.384224 1.490680 10.224100
2 6.426417 1.398379 10.741796
1 7.003617 1.102432 0.702657
2 6.479297 2.049841 0.949774
2 5.501828 2.242602 1.991600
2 7.272585 2.050337 3.093240
2 6.479136 2.561849 5.438940
1 6.107697 2.320221 7.139030
2 4.689532 2.639802 7.685918
2 5.737837 3.995773 9.332246
2 5.359649 3.505569 10.398776
1 7.431761 1.995123 12.186022
2 5.748566 3.379619 1.153884
2 7.824672 3.878782 1.826895
2 5.424575 3.348956 2.398381
2 7.020308 2.241137 4.491763
1 6.125101 3.562736 6.786844
1 6.700430 3.826283 5.776569
2 6.199935 3.032793 8.714235
2 6.896739 4.515505 8.880219
2 6.218294 5.103762 9.550376
2 7.278209 4.140218 11.109829
2 5.872257 4.220575 0.522888
2 6.433806 4.099131 1.911435
1 5.012274 3.891180 3.542949
2 6.070591 4.312319 4.187176
2 7.045121 4.911448 5.058303
2 6.220259 4.522896 6.259496
2 7.714763 5.014764 7.026210
2 7.020587 6.481753 9.246312
1 5.846835 5.597086 10.423169
1 6.512552 4.826217 10.711376
2 6.820304 4.844240 0.338435
2 7.262890 4.791170 1.916628
2 6.036814 6.422055 3.770700
2 6.498088 5.470583 4.194227
2 6.067644 6.052333 5.102060
1 8.253897 6.807956 7.500159
2 7.287479 7.064175 7.919934
2 6.285118 6.913309 8.161380
2 6.592752 6.448986 10.509826
2 7.647332 6.454570 10.846298
2 7.138003 7.121112 0.600321
2 7.242763 5.861949 0.727965
1 7.521940 6.178064 2.096628
1 8.036010 5.343561 4.341421
2 8.434453 6.277171 4.054764
2 7.977037 7.667269 6.816389
2 8.104528 8.868890 9.523349
2 6.246433 7.170145 9.599503
2 8.052128 7.207000 9.573180
2 8.870946 7.669849 10.859008
2 8.169914 7.464640 0.635845
2 7.372474 7.029689 2.752944
2 8.848528 7.317147 3.462076
1 8.522996 6.661163 5.066363
2 6.748708 7.145790 6.863822
2 7.157685 8.034353 6.122367
2 6.428059 9.477024 7.035805
1 7.577587 8.042251 10.099693
2 8.327880 8.943408 10.603758
2 9.076344 9.111604 12.359070
2 7.819432 8.865429 0.943950
2 6.632450 9.202595 2.102330
2 8.951653 8.469778 3.620871
2 7.099165 8.689520 4.820241
2 7.567155 9.458569 5.632250
2 8.568637 8.809456 5.583995
2 7.721798 9.900963 6.962387
2 8.166132 9.908005 8.997146
2 9.135445 10.677119 10.068134
2 6.688789 9.499574 12.166076
2 6.586573 10.234944 1.662811
1 7.361267 10.192315 0.793801
2 8.134000 9.562439 3.286621
1 8.619780 9.722369 4.718889
1 8.898830 10.228408 5.952807
1 7.884698 11.417636 6.708344
2 7.641689 11.388315 8.033317
2 6.481199 13.725319 8.230362
2 7.234342 11.270571 10.356782
2 8.103948 11.687812 11.982235
1 6.759235 11.277327 0.495931
1 9.445119 11.106586 2.465964
2 8.289927 10.798804 3.611717
2 6.026418 12.045213 4.425624
2 6.717527 11.404194 5.198917
2 8.634455 0.298177 6.333242
2 7.612874 0.633794 8.161435
2 8.046061 1.928442 8.341147
2 7.833787 2.413230 9.484822
1 7.300349 0.844441 11.237601
2 7.633202 0.630384 1.823372
2 8.647349 -0.010150 1.492901
2 8.165828 1.130688 3.518966
2 6.752535 0.734932 3.612059
1 6.068751 0.411974 5.598006
2 7.190563 1.562976 5.842868
2 7.060170 1.561227 7.306124
2 7.219132 2.637055 7.679569
2 8.545357 1.727736 11.146814
2 7.331831 2.294085 11.146699
2 7.967615 3.248548 -0.533095
2 7.160385 1.609306 1.791621
2 8.056138 2.620084 2.755084
2 8.099504 2.275746 3.990213
2 8.099925 1.830516 5.191683
2 8.200805 2.673970 5.923597
2 7.145799 2.989406 6.486215
2 7.959695 3.339261 7.305237
2 6.276470 2.826227 10.774804
2 8.456075 4.210417 11.736803
1 6.784965 3.243623 -0.078003
1 8.542538 3.389042 0.891949
2 6.978224 2.933140 2.358170
2 7.845089 3.324604 3.725580
1 6.275698 3.403742 4.690667
1 8.310492 4.078000 6.672392
2 7.818372 3.964324 8.471669
2 8.398852 4.784211 9.505096
2 7.192596 3.286006 9.113241
2 7.649818 3.393530 10.161966
2 7.215484 3.997941 0.798355
2 7.218628 3.911168 2.751963
2 8.130193 2.504260 1.486585
2 7.170045 4.207211 3.989701
1 7.774412 4.082836 5.452015
2 7.960732 5.021313 5.742266
2 7.185528 5.996519 8.014568
2 8.281459 6.648349 8.527492
2 7.375937 4.503022 9.920153
2 7.431746 5.406363 10.853281
2 8.120796 4.997722 0.847575
1 8.310671 6.211260 0.799658
1 6.623321 4.790457 3.182023
2 7.563307 6.156805 5.004424
2 7.515810 6.457617 6.190657
2 8.705456 6.844320 6.090741
2 7.839198 8.213741 8.047347
2 9.425746 7.030047 8.135595
2 9.379793 6.899897 11.355132
1 7.929015 6.176683 9.865981
2 9.726319 7.944347 0.361400
1 8.538969 6.863995 1.694842
2 8.388560 6.404429 2.609876
1 9.205509 7.947811 5.017800
1 10.089101 7.474931 6.081157
2 8.284050 8.878619 6.900212
2 8.938495 8.069575 7.477016
2 8.575234 7.963756 9.007089
1 8.813742 6.606676 10.407365
1 8.871997 5.546959 10.025372
2 8.360593 8.364495 -0.066118
2 8.254813 7.566224 2.449410
2 8.686447 8.271935 1.422831
1 7.845697 7.192467 4.118731
2 8.036468 7.583275 5.156806
2 9.955401 10.675348 7.755454
2 8.758125 9.158999 8.134809
2 9.664622 9.227344 8.919172
2 9.352340 8.310685 10.014425
2 9.585367 8.749551 11.248809
2 9.791967 8.553220 1.357870
2 9.288673 8.364463 2.346859
2 9.017454 11.061741 4.616345
2 7.966547 8.715568 4.074607
2 9.490257 9.248421 5.158152
2 8.579446 10.795400 7.574204
2 9.970283 9.311965 7.492453
1 8.751697 9.563938 9.847161
2 9.380245 10.240235 8.643149
2 9.982674 10.922183 9.278480
2 8.222730 9.642519 -0.171291
1 8.713707 9.308456 1.468356
2 7.961108 8.975864 2.249638
2 10.571458 11.468189 3.010053
1 10.082516 10.644020 5.158499
2 8.449056 12.123532 7.365389
2 8.664533 11.115903 8.785144
2 10.262797 11.689137 8.489006
1 7.991481 11.546938 9.427401
1 9.390966 11.767262 10.339915
2 7.740090 11.323451 1.098314
1 7.933945 10.834301 2.363200
2 9.517587 10.709032 3.478820
2 7.441725 11.786382 4.063463
2 9.588791 11.608040 6.946803
1 8.237083 1.334672 6.422817
1 8.720250 1.286665 7.868857
2 7.957833 1.232973 9.247622
2 8.555758 0.616994 9.915839
2 9.334046 -0.437377 12.216921
2 9.107291 1.325788 1.860675
1 8.090930 1.478031 2.342762
1 9.047704 -0.140984 3.582881
2 8.046751 -0.287850 5.037235
1 9.703954 0.734510 5.685563
2 8.259774 2.040890 7.215459
2 8.958901 2.900823 7.879027
2 8.819679 1.704758 9.799364
2 8.567005 0.423894 11.218540
1 8.282449 1.072689 12.366124
2 8.844218 2.016801 0.358532
2 9.184789 2.183039 2.582283
1 9.814378 0.355031 4.681949
2 9.141831 2.449138 4.494816
2 8.806451 0.973477 5.202826
1 9.912535 3.209212 5.944445
2 8.813673 4.372834 7.656315
2 8.972735 3.630294 9.305832
2 9.704556 3.215945 10.257511
2 8.686306 2.731511 10.354088
2 9.336501 2.773414 -0.553302
1 8.833589 4.347082 1.307256
2 9.240357 1.301643 4.071809
2 9.858650 4.155548 5.135059
1 8.954273 3.521887 5.446012
2 9.138798 4.844230 5.721361
1 9.305325 5.100735 6.941075
2 9.472877 3.878124 8.272736
2 10.169345 3.398307 9.266494
2 9.348915 3.697973 12.253578
2 8.175737 5.708338 -0.117617
2 8.290021 4.989389 2.017670
2 8.721767 4.666445 3.106732
1 8.389891 4.182482 4.131738
2 7.497594 3.023436 5.056592
1 8.593549 5.759053 6.395691
2 8.360522 5.814300 7.497585
1 9.451897 5.222578 8.005704
2 8.760888 5.617600 8.849216
1 8.254281 4.546223 10.672342
1 8.386750 6.740216 -0.336975
1 9.724787 4.977846 2.553567
1 7.720774 4.992733 2.982012
2 10.490547 5.043989 3.262066
2 8.895960 5.520856 4.950243
2 10.604332 6.197289 6.646612
2 10.444040 6.755262 8.816245
2 9.527305 6.308537 9.599164
2 10.604360 7.569943 9.415367
2 9.436845 6.312924 12.308836
2 10.128111 5.630334 0.972923
1 9.426910 5.932049 2.212540
1 9.418072 7.036624 2.532349
2 9.325306 5.622139 3.566804
2 9.559978 6.311035 5.652185
2 10.644203 8.300077 6.698183
2 9.925531 7.489180 7.150270
1 9.337169 7.283387 9.136444
1 10.805744 8.281864 10.638584
2 10.769656 7.934785 11.646932
1 10.555280 7.791345 1.327307
2 10.242001 6.565680 1.569855
2 9.406348 7.397192 1.312339
1 9.644784 6.666101 3.648320
2 10.528195 7.544777 5.003012
2 10.692306 10.056864 6.921362
2 9.461277 8.282041 6.365833
2 9.731688 8.283127 8.133029
2 10.279573 9.081522 10.332364
2 9.037459 10.077465 11.253225
2 11.053340 8.617312 0.723633
2 10.597546 7.325177 2.370479
2 9.501867 9.959098 2.603985
1 9.880772 7.599179 3.214547
2 10.025820 9.477747 6.210860
2 11.270445 9.913178 4.969895
1 10.888119 11.179974 6.559195
2 12.892288 9.025631 10.385318
2 10.190780 9.288500 12.051465
1 8.253381 10.707472 10.670188
2 10.211046 9.872712 1.674642
2 8.869235 10.374543 1.763246
1 10.109266 8.744032 3.647086
1 11.038356 10.359106 4.051965
2 10.056577 9.776811 4.201435
2 12.376550 11.213840 6.709877
2 9.557613 12.462184 7.948682
2 10.591284 11.926642 9.768148
2 9.545142 12.079034 9.344225
2 9.699591 10.424236 12.005528
2 8.496901 10.549305 0.588951
1 9.802736 10.797531 1.193170
2 9.423183 12.705408 3.003659
2 10.031627 11.248739 4.310170
2 11.282216 10.357225 6.000463
2 10.214815 1.969950 6.052370
2 9.357746 1.066483 6.758467
2 10.823204 0.060073 7.603032
2 8.648956 0.379119 8.649253
2 11.233514 0.449501 10.750407
2 9.623349 0.254927 1.069910
1 9.936430 0.484600 2.200133
1 10.979526 0.789062 2.364814
2 10.798884 1.457748 4.944293
2 10.018122 -0.250385 5.897824
2 10.115879 2.334605 5.053983
2 9.302875 2.389516 7.017872
2 9.398376 1.539511 8.864321
2 9.681591 1.863230 10.602714
2 9.531451 1.345463 11.726406
2 11.727076 2.458759 -0.532214
2 10.119486 1.726941 2.036195
2 10.145648 2.306612 3.450019
1 10.224349 3.245442 4.080966
2 9.191566 1.815479 5.966799
2 9.841044 3.519105 7.095414
1 9.976688 2.396928 8.334871
2 9.752512 2.332217 9.546672
2 10.559382 2.517555 10.282564
2 10.042233 2.454621 12.191039
1 10.445286 3.614341 0.977912
2 10.766486 4.069348 2.722222
1 8.752535 3.754195 2.384571
1 10.582525 4.295044 4.342798
2 11.067843 3.372361 4.857247
2 10.463480 4.786085 6.554194
2 10.646968 4.267434 7.829583
1 11.031503 2.638786 9.078499
2 9.115556 3.828094 10.971827
2 9.022601 5.218964 11.137571
1 10.413381 3.511002 -0.498690
2 9.486684 3.228148 1.540116
2 11.578762 4.772312 3.223775
2 8.933827 3.175435 3.606730
2 9.491082 4.021702 4.064997
2 10.475281 5.361481 7.331804
2 9.327228 6.283585 7.114464
1 10.150864 4.831084 8.688035
1 10.007758 5.961640 10.593431
2 11.224511 4.931240 12.713348
2 9.913999 4.549346 1.190112
1 10.805784 4.884163 2.038742
2 9.688362 3.717139 2.952495
2 10.034118 5.279587 4.550159
2 10.283763 5.140671 5.587679
2 11.487364 5.535375 6.620818
1 10.886708 7.543296 8.304253
1 10.961708 6.303581 10.036321
1 10.303121 5.528556 11.464881
2 11.632760 7.211976 11.796294
2 10.541942 7.061989 0.455029
1 11.606594 6.887086 2.646153
1 12.186155 6.765707 3.604356
2 10.555332 6.140537 3.874577
2 11.050825 6.144706 5.581670
1 10.930030 7.138537 6.909899
1 12.556665 8.506189 8.037527
2 11.579909 7.443645 9.018763
1 11.613723 7.044579 10.636979
2 11.132329 9.137943 11.436661
1 11.541876 7.890512 1.719064
2 12.534294 7.546618 2.492930
1 10.721540 7.233782 3.809630
2 11.513852 8.245951 4.327778
1 10.386799 8.637554 5.602336
2 11.455240 9.137866 6.569019
2 11.384440 8.296596 7.581025
2 11.909517 8.529361 9.058109
2 10.807441 8.646700 9.280295
2 11.474706 9.185762 10.068226
2 10.783785 8.718647 2.396218
2 11.697759 10.563868 1.124846
2 11.605722 7.708788 3.472463
2 11.517001 9.044568 3.452528
2 10.684132 9.004589 4.560540
2 11.887151 10.252461 6.936151
1 11.445374 9.685949 7.887496
2 10.460506 9.867544 8.285988
2 10.573841 10.059760 9.609648
2 10.283737 10.024989 10.871101
2 10.461974 11.486415 0.789695
2 11.400075 10.459670 2.809283
2 10.720016 9.692375 3.173835
1 12.733367 10.776403 4.621240
1 11.426407 8.726148 5.312711
2 11.872814 12.094896 6.097894
2 11.371665 10.840925 7.993600
2 11.283456 11.323327 9.005577
1 10.144496 11.025406 10.477894
2 11.043502 11.094045 11.188600
1 10.094135 11.798823 -0.526433
2 11.424406 12.919440 1.211596
2 11.791889 11.186724 3.582397
2 10.269914 12.776303 3.793979
2 10.988526 11.872665 4.065112
1 10.481895 0.758927 6.854694
2 11.536779 1.374894 7.498801
2 10.346695 1.198640 9.278847
1 11.342937 0.735972 9.730402
2 12.180128 1.031150 11.142878
2 10.220581 1.151741 0.934404
2 11.639120 -0.086710 -0.037474
2 12.051749 0.941757 2.183597
2 11.217610 1.447383 3.876360
2 10.930010 0.688889 5.767756
2 11.479303 1.458400 6.280301
1 10.215102 1.460330 7.662317
2 11.140303 1.607624 10.775384
2 12.667702 1.415649 10.211478
2 10.855595 0.862043 11.757295
2 11.651242 1.614950 0.260965
2 10.851271 2.147049 1.103594
2 12.320151 2.583408 2.536027
2 11.000825 2.458736 4.336634
2 11.116098 2.319623 5.578158
1 11.711768 2.534166 6.403649
2 10.990349 3.093942 8.084474
2 11.377747 3.486896 9.707928
1 11.712199 2.581033 10.256207
2 10.500391 3.974794 10.303280
2 11.618096 3.778532 0.539137
2 10.557168 2.956409 1.951705
2 11.224481 3.550980 3.622790
1 12.708721 3.321960 3.852251
1 11.610247 4.483068 4.319058
2 10.980426 3.317315 6.814387
1 11.699654 4.596700 7.739390
2 11.392299 3.943771 8.698013
2 10.925017 5.351541 9.354852
2 10.940674 4.602676 11.182213
2 11.448924 3.478191 -0.863410
2 11.291225 3.702518 1.811134
2 10.777485 5.952053 2.565228
2 11.118427 5.376832 4.725673
2 11.566226 4.356054 6.682437
1 11.805674 5.400569 5.657548
2 10.247368 6.291920 7.842250
2 11.159773 5.878235 8.504283
2 9.585082 4.835133 9.680345
2 11.402023 5.861518 11.934035
1 12.195120 5.135022 1.140044
1 11.116840 5.907364 1.507327
2 12.115033 6.297729 1.788437
2 11.217461 4.368022 5.622371
2 11.509601 5.918901 3.488244
2 -0.002225 6.853824 6.044086
2 -0.041963 7.327609 7.782506
2 0.803087 7.697381 8.896536
2 0.989059 5.520535 10.272472
2 0.487036 6.399391 10.970226
2 0.909627 6.376053 0.793644
2 1.113427 4.762866 1.961318
2 0.936337 5.817128 3.212233
2 -0.272906 7.122821 4.728374
2 0.940148 6.604605 5.407440
1 0.215777 7.923401 6.539858
1 1.627440 8.958861 8.748282
2 -1.393950 6.948220 11.026725
2 0.842999 6.760207 9.865790
2 0.266430 8.282680 11.309794
2 0.985346 7.227848 0.018398
2 -0.431162 6.922158 1.168635
2 0.700693 7.836546 4.253515
2 1.320547 6.974934 4.151765
2 -0.665502 7.665462 5.828461
1 1.515403 8.336919 5.936905
2 0.926149 8.401519 7.053496
2 1.267180 9.844195 9.291218
2 0.637378 7.727468 10.446386
2 0.059843 10.265133 11.673860
2 0.428537 9.333066 0.145867
2 0.153741 8.889557 1.915702
2 1.229964 9.300878 1.089657
2 0.160014 9.876485 4.118539
2 0.362576 9.599802 5.511325
2 0.449872 10.680007 5.776015
2 0.606792 9.459886 7.353136
2 0.532471 9.432809 8.611686
2 -0.130847 10.196224 9.553200
2 0.459888 9.901319 10.705591
1 -1.143372 10.444727 0.412955
2 0.269070 10.311857 2.046650
2 0.495463 9.780130 3.050823
2 2.115956 10.585784 3.776677
2 -0.219146 10.967482 4.954790
1 1.045374 11.598748 5.373283
2 0.623596 11.040385 8.549017
2 0.264614 12.073046 9.137120
2 -0.337064 11.423662 10.156123
2 0.632762 12.205112 10.327282
1 0.708464 10.844466 0.510710
1 -0.346419 11.596349 2.641557
1 -0.366447 12.323445 3.334745
2 0.192360 11.880470 4.648432
1 -0.943822 11.687609 5.201224
1 0.213087 -0.001538 7.862690
2 0.884727 0.643277 8.276300
2 -0.724519 0.605457 8.565454
2 1.851770 1.811366 9.303183
2 1.942545 0.358733 11.513120
2 0.863462 0.295874 0.396030
1 0.662669 1.134820 1.015074
2 -0.634245 1.892674 2.138718
2 0.508146 1.058607 3.752666
2 0.313219 0.842295 5.252843
2 0.905161 2.112727 7.081827
2 0.530294 1.000923 6.993273
1 -0.008749 2.279527 7.829912
2 -0.322758 1.522103 8.909344
2 0.808789 2.199762 10.983637
2 1.543579 1.964343 1.124419
2 0.255463 2.012478 1.263093
2 1.141099 0.548144 1.808207
2 -0.121229 2.492724 3.511558
2 0.878500 2.308791 4.271650
1 0.469710 3.544973 6.471071
1 -1.172434 2.312617 7.398241
2 0.097041 3.470797 7.572240
2 0.721870 1.817610 9.111548
2 0.828862 3.460085 11.301229
2 0.804417 2.676255 0.257499
1 0.560046 3.040887 1.566818
1 1.273027 2.310616 1.967137
2 1.105395 2.737551 5.340740
2 0.357348 3.474553 4.742422
2 0.735058 5.511131 6.587458
1 0.482459 4.170038 8.433703
2 0.395762 4.692323 9.626393
2 0.857820 3.342959 10.000437
2 0.244011 4.481238 10.854237
2 1.056314 4.006025 1.082917
2 1.468328 3.526341 2.582010
2 0.283184 3.653030 2.501247
2 0.954418 4.593762 3.077981
2 0.663502 4.314487 5.505471
2 1.070589 5.221314 5.268715
2 0.417693 5.273465 8.347764
1 0.390813 6.634103 8.449056
1 0.166740 5.972776 9.473621
1 -0.496974 5.162733 10.227283
2 0.268431 4.907954 0.076968
2 1.259809 5.789955 2.130968
2 0.029900 5.315050 2.271395
1 0.558006 5.176928 4.124977
2 0.131423 6.115597 4.632698
2 0.682550 7.772030 5.469956
2 1.279579 6.423755 6.949387
2 2.680897 6.142164 8.859563
2 1.821506 7.047338 8.997660
2 2.004357 6.211145 10.227087
2 2.057047 6.627002 0.832283
1 2.330484 6.719121 2.335703
2 2.411461 6.001548 3.711725
2 2.117061 7.619779 5.015802
1 2.060316 6.381125 5.719646
2 1.526106 7.147601 6.167628
2 1.477516 7.781911 7.726674
2 2.387756 8.032475 8.932707
2 2.503553 7.341742 9.948680
2 1.522722 8.148655 9.764402
2 1.213087 6.860217 1.734532
2 2.202934 7.827897 2.528909
2 0.863379 8.783676 2.873932
2 1.458870 6.866006 2.987575
2 0.739735 8.882775 4.520119
2 3.078305 9.114698 7.276928
2 1.606317 8.939549 7.728466
1 2.499112 9.197312 8.196268
1 1.913883 9.248639 11.235274
1 1.324131 8.088821 13.784823
2 0.434780 8.183841 0.707789
2 2.098163 9.074633 2.479299
1 1.989788 9.381966 3.665265
2 3.990423 9.394330 4.150961
2 1.759138 9.135879 5.288254
2 1.230145 9.944590 6.293312
2 2.129542 9.686854 7.191047
2 1.529673 10.266974 8.072800
2 2.762392 10.281288 9.770997
2 2.055151 10.426167 10.786284
2 1.291046 10.113477 0.132941
2 2.054155 9.979085 1.228870
2 1.230860 10.788364 1.826392
2 4.360505 9.289067 3.112612
2 1.353763 9.787475 4.413012
2 1.696938 10.797855 7.015459
1 1.368091 11.783515 7.487748
1 0.843754 11.349447 9.546344
2 1.968860 11.665462 10.039827
1 2.273142 10.295011 11.980290
2 1.120017 11.133252 -0.449701
2 2.198691 10.557898 2.325968
2 1.116050 10.537109 3.523335
2 1.316158 11.976107 4.346087
2 2.128709 10.922033 5.077318
2 1.973940 0.067596 6.552552
2 3.304295 2.623672 7.748767
2 1.393887 0.654168 9.182977
2 2.338366 1.427891 10.358965
2 1.231003 -1.209405 10.186593
1 0.994570 1.578359 0.016911
2 -0.114185 -0.246839 1.478278
1 0.889220 -0.169490 3.300607
2 1.707023 2.563302 3.126736
2 2.127462 0.247765 5.358079
2 1.138303 0.598227 6.086559
2 1.146278 1.683718 8.072445
1 3.172043 1.977297 9.736163
2 1.705285 1.764160 11.111209
2 1.901504 2.661307 11.933272
2 3.151914 1.822634 1.256117
2 2.045181 0.050143 1.706928
2 2.163735 1.237117 1.612739
2 1.590944 1.395355 3.383618
1 1.787806 1.509450 4.754932
1 2.026287 1.949855 7.218374
2 1.012639 2.954968 8.040048
2 1.995675 2.379826 8.236312
2 1.831136 2.549223 10.231202
1 1.909587 3.811699 10.534490
2 2.777475 2.990779 0.798961
2 1.775213 3.120446 1.345432
1 2.541349 0.969847 2.998836
1 1.769699 3.083302 4.337298
1 1.628542 2.003107 5.989097
2 2.379693 3.950136 4.883433
2 2.612527 4.465243 7.084578
2 0.340147 2.894724 9.015181
1 1.489631 3.197384 9.148626
2 1.182383 5.572682 11.672132
2 1.419757 4.456731 -0.415730
2 2.069456 3.739469 0.369004
1 1.908498 3.779199 3.653604
2 1.211211 4.291018 4.540819
2 2.342724 2.663477 5.576675
1 1.759701 5.405338 7.057340
1 1.252982 4.444662 7.832201
2 1.225048 4.939803 8.953532
2 1.925632 4.249244 8.829717
2 1.688588 7.096716 10.750471
2 1.493438 5.353999 0.954750
2 2.385133 5.490593 1.897013
2 1.962133 5.104595 2.956811
2 1.501392 5.668773 4.256048
1 1.723945 4.727723 6.007531
1 2.226018 6.681720 6.793968
2 1.316586 5.980456 8.235731
2 2.291486 5.965025 7.799931
2 3.779822 5.265902 9.268330
2 3.729016 7.235937 10.086719
2 2.677701 7.837950 0.048663
2 2.951080 7.288448 1.635478
2 3.630651 5.856824 2.051285
2 2.526639 7.276850 3.609661
2 3.301884 7.001089 4.473662
2 3.280163 6.723261 6.776876
1 3.640647 6.930772 7.729245
2 3.591226 8.599214 8.697977
2 3.295972 7.413024 9.003521
2 3.107546 7.764412 10.899244
1 3.823500 8.439429 -0.064766
2 3.330086 8.454751 1.983753
2 3.203276 6.666710 3.068649
2 2.735114 8.665950 3.339413
1 2.419485 7.734787 6.085875
2 3.634468 9.967520 5.366452
2 2.157670 8.384143 6.896685
2 2.462832 9.036306 9.342938
2 3.072736 9.472558 10.500777
2 2.401153 8.489827 13.180770
2 3.061291 9.308475 0.112861
1 3.362078 9.391659 2.469820
2 1.649257 8.230745 3.997918
2 3.034181 8.080499 4.354957
1 4.073942 8.333231 4.722285
2 3.048857 9.349220 6.031211
2 3.202118 8.006748 6.712920
2 4.315104 8.896592 7.789024
2 3.891627 9.805058 9.820372
1 1.863860 8.648251 12.284377
2 3.614426 10.289618 0.822554
2 2.609212 10.959772 1.194311
1 3.292836 10.260333 1.902126
2 4.041332 8.125316 3.675037
2 2.832865 10.032425 4.578397
2 2.704932 11.221323 5.975694
2 2.368328 11.498989 7.565217
2 2.188320 10.545394 8.845823
1 3.202945 11.787073 10.181064
2 3.121723 10.376271 11.301909
2 3.591358 11.549519 -0.607597
2 2.960126 12.009726 2.239001
2 3.149250 10.118530 3.411274
2 2.005980 11.899649 3.179328
2 3.013569 11.476652 4.742528
2 3.791060 -1.071858 7.887454
2 1.913312 0.904507 7.874571
2 1.784308 -0.183481 8.542737
1 4.558349 1.577463 10.301901
2 3.681620 1.152087 10.027871
2 2.953600 0.822752 -0.091077
2 2.882827 -0.544657 0.100042
2 3.176352 -0.014907 3.764217
1 2.214883 0.816407 4.116888
2 3.215152 1.575521 5.050122
1 2.929900 3.455264 6.262787
2 2.936477 2.424023 6.675615
1 2.572200 1.590635 8.534362
2 3.754645 2.258305 10.752802
2 2.494182 3.218998 11.212437
1 2.657750 1.835012 -0.266129
2 3.151628 0.219253 1.025660
2 3.429705 2.113016 3.021304
2 2.442246 2.184700 4.150504
2 4.182299 1.072037 5.219267
1 3.949840 3.214818 6.222337
2 2.332958 3.357501 7.389585
1 2.776964 2.923709 8.930699
2 3.321407 3.109023 9.807679
1 3.390659 2.587691 11.901414
1 3.732739 3.097692 1.372314
2 2.347952 2.081284 2.372727
1 2.636725 3.032665 2.693224
1 2.748062 3.230870 3.748524
1 3.629268 1.781978 5.975761
1 1.385258 4.073093 6.851947
2 2.797510 4.956889 8.322836
2 3.352926 6.052917 9.992136
2 3.349261 4.226795 9.231302
2 2.511583 4.572983 11.586089
2 3.495868 3.656041 0.518265
1 3.083333 3.825003 1.425169
2 2.082538 4.366248 1.692825
2 2.761737 4.294313 2.866955
2 3.516993 4.403297 4.997596
2 3.339000 5.658666 7.151202
2 4.975667 5.899376 6.926140
2 2.731615 3.775254 8.300720
2 2.253926 4.954872 10.471132
2 3.053720 5.489389 11.787271
1 3.116596 5.984455 1.204270
2 3.045780 4.775819 0.923921
1 2.973406 5.514354 2.878997
2 2.755914 5.202808 4.753075
2 2.605925 5.554276 5.949159
1 3.411961 5.863721 5.367940
2 4.509098 7.105426 7.128899
2 3.506856 5.901515 8.191727
2 4.385068 6.591821 10.635743
1 3.291512 6.520636 11.026494
2 4.261461 6.217786 1.168852
2 4.044443 7.317615 1.353792
2 4.435015 6.629741 2.424438
2 3.471391 5.843525 4.014506
2 4.070648 6.031212 6.276468
2 4.074651 7.666759 5.735974
2 4.621277 8.205503 6.875328
1 3.032448 7.998699 7.817368
2 3.237272 8.418975 9.985753
2 4.255332 7.715243 11.096036
1 3.479513 7.195527 0.088394
2 4.564746 8.767060 1.302224
2 3.375749 7.683816 2.948101
1 4.544427 7.453091 3.171470
2 5.007967 8.156132 5.799305
2 3.016485 8.398178 5.430073
2 5.436524 8.900642 7.457232
1 5.100884 8.896412 8.522824
2 4.198061 8.867169 10.792039
2 5.093546 9.229120 11.165701
2 4.874633 8.466031 0.279240
1 4.689559 9.475031 2.196474
2 4.531235 8.245803 2.247933
1 5.064292 8.161658 4.777147
2 5.707017 9.161018 5.260442
2 3.455778 10.406498 6.454813
2 2.684102 10.512769 7.801316
2 3.303085 9.827313 8.777632
2 4.425910 8.890060 9.607145
2 3.969584 9.713893 11.565724
2 3.379219 9.356221 1.389811
2 4.214797 10.245700 2.846435
2 3.967492 11.313657 3.254074
2 4.919047 9.850038 3.843540
1 4.683292 10.321900 6.002425
2 4.195418 10.842695 5.279114
2 3.735397 12.155842 7.298916
2 2.873003 11.620291 9.084907
2 4.654400 10.336258 11.024436
1 3.931459 10.888729 10.059746
1 4.859229 11.170257 0.647166
2 3.907227 11.280714 1.682466
2 4.050838 12.324193 1.764361
1 3.936464 10.578088 4.220679
2 4.635300 9.935672 4.952079
1 4.768541 1.076395 6.153786
2 3.995423 -0.189458 8.383915
2 3.870497 0.843223 8.917532
2 4.953286 0.581796 10.043917
2 4.353242 0.580097 11.321283
1 4.058367 0.056887 0.489440
2 3.250445 1.138588 2.208838
2 3.916308 0.819727 3.087185
2 4.056219 0.258865 4.432878
2 3.477031 0.219531 5.470954
2 3.841005 1.624545 7.146235
2 4.910741 1.490557 7.922169
2 2.660899 0.746421 9.528881
2 4.235529 1.954253 9.270667
2 4.075992 1.613905 11.821476
2 4.520548 1.784158 0.988509
1 3.707357 1.085723 0.727038
2 3.592339 2.096858 4.201828
1 3.308133 1.200902 3.901851
2 2.519442 1.214983 6.101216
2 5.155152 3.557758 6.228824
2 3.792314 3.351144 8.606604
1 3.648448 1.599394 8.195288
2 4.765459 3.432765 11.199057
2 4.492097 2.713190 11.927058
1 4.852060 2.833836 1.075735
2 3.633976 3.492173 2.432922
1 3.984872 4.080436 3.686476
2 5.340266 2.879786 3.444553
1 3.192710 2.991771 5.032064
2 3.834070 3.735764 7.314572
2 3.915538 4.651416 8.216792
2 4.711314 4.265989 8.827214
2 4.155645 3.737159 9.925922
2 3.715198 3.950666 11.266800
1 4.579386 3.914081 0.542411
2 4.107551 4.379914 1.423363
1 3.574661 4.799597 2.528256
2 3.160837 4.780522 3.835800
2 4.370641 3.867688 5.345808
1 3.849104 4.719289 6.931226
1 5.703126 6.034400 7.739265
2 5.045157 5.423820 9.101055
2 4.595255 5.663152 10.213651
1 4.569412 5.999296 11.889596
2 4.162065 5.063516 0.606150
2 4.598073 5.259549 2.298579
2 4.082735 5.714170 3.108457
1 5.423807 5.328485 3.462055
2 4.073728 5.108354 5.691888
1 5.684167 6.938253 6.907564
2 4.683355 6.472631 8.107204
1 5.912151 6.032540 9.421252
1 5.250378 6.302964 11.210760
1 4.691535 7.334959 12.193150
1 5.997988 6.204950 0.414386
2 6.497695 5.772282 2.729074
2 5.374818 6.179763 2.602257
2 4.393683 6.330601 5.052207
1 5.212292 5.793077 5.374429
2 5.052669 6.726016 5.992110
2 4.705614 7.922264 8.256626
2 4.960693 6.926935 9.334755
2 4.617188 7.956052 10.097113
1 5.361857 8.327218 11.021874
1 5.079472 6.766756 1.467445
1 5.959486 7.264463 2.477092
2 5.586320 8.446489 2.176801
2 4.647519 7.365210 4.157534
2 5.884045 7.079227 4.745171
2 4.213759 9.120644 6.064626
1 4.221483 10.964919 6.786645
1 5.668740 9.943732 7.946929
2 5.503204 8.717900 10.053313
2 5.887521 9.948303 11.547843
2 6.757334 8.513207 0.803745
2 5.775843 9.431944 1.042417
2 5.681630 9.856067 2.266202
2 5.860157 8.154086 6.521397
2 6.149429 8.091740 4.882381
2 5.725649 10.294085 6.508984
2 4.802894 9.815894 7.154573
2 6.003285 9.547633 9.180651
2 5.539070 9.751956 10.300250
2 4.650874 11.519999 10.819714
2 4.835572 9.929946 0.365184
2 4.943414 10.659259 1.798268
2 6.121553 10.020695 4.085569
2 6.959366 7.818785 3.962704
2 5.814435 10.256181 5.269455
2 5.282421 11.581687 6.733531
2 5.082297 11.637553 8.153603
2 4.917899 11.452135 9.257468
2 5.678781 11.492409 10.119430
1 5.716535 12.453431 10.931220
2 5.601677 11.150794 -0.135332
2 5.224370 11.915725 2.114517
2 5.073832 11.020977 2.897078
1 5.057917 11.123103 4.418494
1 4.346822 11.680512 6.035037
2 6.405070 0.942158 6.629422
2 5.584724 -1.266531 8.895746
2 6.231328 -0.206725 9.107844
2 5.274216 0.912518 8.984355
1 5.075523 1.429177 11.325745
2 5.093954 0.283703 0.204117
2 6.367586 0.449784 2.180936
2 5.994650 -0.034124 3.200314
2 4.919587 0.349532 3.713229
2 5.419195 1.198072 4.541466
1 5.358134 1.681333 6.836870
2 4.958914 0.671961 7.107518
2 5.544264 2.731372 9.680151
2 5.114054 2.430116 10.829863
2 5.956470 1.960700 11.499536
2 5.475186 1.645174 0.558816
1 4.218780 1.499663 2.270621
2 5.268591 1.259404 2.623466
1 5.819068 1.699376 3.403166
2 4.147976 2.592051 5.171019
2 5.388156 2.502326 5.304506
1 4.859072 3.816403 7.794645
2 4.756616 3.032638 8.800040
2 4.449856 2.733667 9.979668
2 5.786394 2.996184 11.886100
1 5.201042 4.171699 1.574742
2 6.958984 3.129783 1.274797
2 4.427206 1.522704 3.655990
2 6.516981 3.192979 3.618462
2 5.277950 3.634909 4.697008
2 6.941030 4.244777 7.775799
2 5.860692 4.254168 8.327092
1 5.487606 4.604762 10.486136
2 6.594514 3.696046 10.046001
2 4.129324 5.072838 11.124798
2 5.194641 4.989858 0.546363
2 4.471523 2.718638 2.423504
1 4.407439 4.282550 2.674334
2 4.217512 2.747123 3.611230
1 5.318499 4.524184 5.408703
2 5.162166 4.809856 6.451052
2 4.412291 5.515543 7.687849
1 5.946686 5.130234 7.169295
1 3.886999 6.553038 9.071594
2 5.955097 3.944126 11.234512
2 5.873717 5.280872 -0.279419
2 6.367257 5.320169 1.529588
2 5.662214 4.625980 2.442242
1 4.971782 6.333261 3.726844
2 4.712635 5.378402 4.529223
